<?xml version="1.0"?>
<VTKFile type="StructuredGrid">
<StructuredGrid WholeExtent="0 158 0 30 0 0 ">
<Piece Extent="0 158 0 30 0 0 ">
<Points>
<DataArray type="Float64" format="ascii" NumberOfComponents="3">
0.000000e+00 0.000000e+00 0.000000e+00
3.164557e-02 0.000000e+00 0.000000e+00
6.329114e-02 0.000000e+00 0.000000e+00
9.493671e-02 0.000000e+00 0.000000e+00
1.265823e-01 0.000000e+00 0.000000e+00
1.582278e-01 0.000000e+00 0.000000e+00
1.898734e-01 0.000000e+00 0.000000e+00
2.215190e-01 0.000000e+00 0.000000e+00
2.531646e-01 0.000000e+00 0.000000e+00
2.848101e-01 0.000000e+00 0.000000e+00
3.164557e-01 0.000000e+00 0.000000e+00
3.481013e-01 0.000000e+00 0.000000e+00
3.797468e-01 0.000000e+00 0.000000e+00
4.113924e-01 0.000000e+00 0.000000e+00
4.430380e-01 0.000000e+00 0.000000e+00
4.746835e-01 0.000000e+00 0.000000e+00
5.063291e-01 0.000000e+00 0.000000e+00
5.379747e-01 0.000000e+00 0.000000e+00
5.696203e-01 0.000000e+00 0.000000e+00
6.012658e-01 0.000000e+00 0.000000e+00
6.329114e-01 0.000000e+00 0.000000e+00
6.645570e-01 0.000000e+00 0.000000e+00
6.962025e-01 0.000000e+00 0.000000e+00
7.278481e-01 0.000000e+00 0.000000e+00
7.594937e-01 0.000000e+00 0.000000e+00
7.911392e-01 0.000000e+00 0.000000e+00
8.227848e-01 0.000000e+00 0.000000e+00
8.544304e-01 0.000000e+00 0.000000e+00
8.860759e-01 0.000000e+00 0.000000e+00
9.177215e-01 0.000000e+00 0.000000e+00
9.493671e-01 0.000000e+00 0.000000e+00
9.810127e-01 0.000000e+00 0.000000e+00
1.012658e+00 0.000000e+00 0.000000e+00
1.044304e+00 0.000000e+00 0.000000e+00
1.075949e+00 0.000000e+00 0.000000e+00
1.107595e+00 0.000000e+00 0.000000e+00
1.139241e+00 0.000000e+00 0.000000e+00
1.170886e+00 0.000000e+00 0.000000e+00
1.202532e+00 0.000000e+00 0.000000e+00
1.234177e+00 0.000000e+00 0.000000e+00
1.265823e+00 0.000000e+00 0.000000e+00
1.297468e+00 0.000000e+00 0.000000e+00
1.329114e+00 0.000000e+00 0.000000e+00
1.360759e+00 0.000000e+00 0.000000e+00
1.392405e+00 0.000000e+00 0.000000e+00
1.424051e+00 0.000000e+00 0.000000e+00
1.455696e+00 0.000000e+00 0.000000e+00
1.487342e+00 0.000000e+00 0.000000e+00
1.518987e+00 0.000000e+00 0.000000e+00
1.550633e+00 0.000000e+00 0.000000e+00
1.582278e+00 0.000000e+00 0.000000e+00
1.613924e+00 0.000000e+00 0.000000e+00
1.645570e+00 0.000000e+00 0.000000e+00
1.677215e+00 0.000000e+00 0.000000e+00
1.708861e+00 0.000000e+00 0.000000e+00
1.740506e+00 0.000000e+00 0.000000e+00
1.772152e+00 0.000000e+00 0.000000e+00
1.803797e+00 0.000000e+00 0.000000e+00
1.835443e+00 0.000000e+00 0.000000e+00
1.867089e+00 0.000000e+00 0.000000e+00
1.898734e+00 0.000000e+00 0.000000e+00
1.930380e+00 0.000000e+00 0.000000e+00
1.962025e+00 0.000000e+00 0.000000e+00
1.993671e+00 0.000000e+00 0.000000e+00
2.025316e+00 0.000000e+00 0.000000e+00
2.056962e+00 0.000000e+00 0.000000e+00
2.088608e+00 0.000000e+00 0.000000e+00
2.120253e+00 0.000000e+00 0.000000e+00
2.151899e+00 0.000000e+00 0.000000e+00
2.183544e+00 0.000000e+00 0.000000e+00
2.215190e+00 0.000000e+00 0.000000e+00
2.246835e+00 0.000000e+00 0.000000e+00
2.278481e+00 0.000000e+00 0.000000e+00
2.310127e+00 0.000000e+00 0.000000e+00
2.341772e+00 0.000000e+00 0.000000e+00
2.373418e+00 0.000000e+00 0.000000e+00
2.405063e+00 0.000000e+00 0.000000e+00
2.436709e+00 0.000000e+00 0.000000e+00
2.468354e+00 0.000000e+00 0.000000e+00
2.500000e+00 0.000000e+00 0.000000e+00
2.531646e+00 0.000000e+00 0.000000e+00
2.563291e+00 0.000000e+00 0.000000e+00
2.594937e+00 0.000000e+00 0.000000e+00
2.626582e+00 0.000000e+00 0.000000e+00
2.658228e+00 0.000000e+00 0.000000e+00
2.689873e+00 0.000000e+00 0.000000e+00
2.721519e+00 0.000000e+00 0.000000e+00
2.753165e+00 0.000000e+00 0.000000e+00
2.784810e+00 0.000000e+00 0.000000e+00
2.816456e+00 0.000000e+00 0.000000e+00
2.848101e+00 0.000000e+00 0.000000e+00
2.879747e+00 0.000000e+00 0.000000e+00
2.911392e+00 0.000000e+00 0.000000e+00
2.943038e+00 0.000000e+00 0.000000e+00
2.974684e+00 0.000000e+00 0.000000e+00
3.006329e+00 0.000000e+00 0.000000e+00
3.037975e+00 0.000000e+00 0.000000e+00
3.069620e+00 0.000000e+00 0.000000e+00
3.101266e+00 0.000000e+00 0.000000e+00
3.132911e+00 0.000000e+00 0.000000e+00
3.164557e+00 0.000000e+00 0.000000e+00
3.196203e+00 0.000000e+00 0.000000e+00
3.227848e+00 0.000000e+00 0.000000e+00
3.259494e+00 0.000000e+00 0.000000e+00
3.291139e+00 0.000000e+00 0.000000e+00
3.322785e+00 0.000000e+00 0.000000e+00
3.354430e+00 0.000000e+00 0.000000e+00
3.386076e+00 0.000000e+00 0.000000e+00
3.417722e+00 0.000000e+00 0.000000e+00
3.449367e+00 0.000000e+00 0.000000e+00
3.481013e+00 0.000000e+00 0.000000e+00
3.512658e+00 0.000000e+00 0.000000e+00
3.544304e+00 0.000000e+00 0.000000e+00
3.575949e+00 0.000000e+00 0.000000e+00
3.607595e+00 0.000000e+00 0.000000e+00
3.639241e+00 0.000000e+00 0.000000e+00
3.670886e+00 0.000000e+00 0.000000e+00
3.702532e+00 0.000000e+00 0.000000e+00
3.734177e+00 0.000000e+00 0.000000e+00
3.765823e+00 0.000000e+00 0.000000e+00
3.797468e+00 0.000000e+00 0.000000e+00
3.829114e+00 0.000000e+00 0.000000e+00
3.860759e+00 0.000000e+00 0.000000e+00
3.892405e+00 0.000000e+00 0.000000e+00
3.924051e+00 0.000000e+00 0.000000e+00
3.955696e+00 0.000000e+00 0.000000e+00
3.987342e+00 0.000000e+00 0.000000e+00
4.018987e+00 0.000000e+00 0.000000e+00
4.050633e+00 0.000000e+00 0.000000e+00
4.082278e+00 0.000000e+00 0.000000e+00
4.113924e+00 0.000000e+00 0.000000e+00
4.145570e+00 0.000000e+00 0.000000e+00
4.177215e+00 0.000000e+00 0.000000e+00
4.208861e+00 0.000000e+00 0.000000e+00
4.240506e+00 0.000000e+00 0.000000e+00
4.272152e+00 0.000000e+00 0.000000e+00
4.303797e+00 0.000000e+00 0.000000e+00
4.335443e+00 0.000000e+00 0.000000e+00
4.367089e+00 0.000000e+00 0.000000e+00
4.398734e+00 0.000000e+00 0.000000e+00
4.430380e+00 0.000000e+00 0.000000e+00
4.462025e+00 0.000000e+00 0.000000e+00
4.493671e+00 0.000000e+00 0.000000e+00
4.525316e+00 0.000000e+00 0.000000e+00
4.556962e+00 0.000000e+00 0.000000e+00
4.588608e+00 0.000000e+00 0.000000e+00
4.620253e+00 0.000000e+00 0.000000e+00
4.651899e+00 0.000000e+00 0.000000e+00
4.683544e+00 0.000000e+00 0.000000e+00
4.715190e+00 0.000000e+00 0.000000e+00
4.746835e+00 0.000000e+00 0.000000e+00
4.778481e+00 0.000000e+00 0.000000e+00
4.810127e+00 0.000000e+00 0.000000e+00
4.841772e+00 0.000000e+00 0.000000e+00
4.873418e+00 0.000000e+00 0.000000e+00
4.905063e+00 0.000000e+00 0.000000e+00
4.936709e+00 0.000000e+00 0.000000e+00
4.968354e+00 0.000000e+00 0.000000e+00
5.000000e+00 0.000000e+00 0.000000e+00
0.000000e+00 3.333333e-02 0.000000e+00
3.164557e-02 3.333333e-02 0.000000e+00
6.329114e-02 3.333333e-02 0.000000e+00
9.493671e-02 3.333333e-02 0.000000e+00
1.265823e-01 3.333333e-02 0.000000e+00
1.582278e-01 3.333333e-02 0.000000e+00
1.898734e-01 3.333333e-02 0.000000e+00
2.215190e-01 3.333333e-02 0.000000e+00
2.531646e-01 3.333333e-02 0.000000e+00
2.848101e-01 3.333333e-02 0.000000e+00
3.164557e-01 3.333333e-02 0.000000e+00
3.481013e-01 3.333333e-02 0.000000e+00
3.797468e-01 3.333333e-02 0.000000e+00
4.113924e-01 3.333333e-02 0.000000e+00
4.430380e-01 3.333333e-02 0.000000e+00
4.746835e-01 3.333333e-02 0.000000e+00
5.063291e-01 3.333333e-02 0.000000e+00
5.379747e-01 3.333333e-02 0.000000e+00
5.696203e-01 3.333333e-02 0.000000e+00
6.012658e-01 3.333333e-02 0.000000e+00
6.329114e-01 3.333333e-02 0.000000e+00
6.645570e-01 3.333333e-02 0.000000e+00
6.962025e-01 3.333333e-02 0.000000e+00
7.278481e-01 3.333333e-02 0.000000e+00
7.594937e-01 3.333333e-02 0.000000e+00
7.911392e-01 3.333333e-02 0.000000e+00
8.227848e-01 3.333333e-02 0.000000e+00
8.544304e-01 3.333333e-02 0.000000e+00
8.860759e-01 3.333333e-02 0.000000e+00
9.177215e-01 3.333333e-02 0.000000e+00
9.493671e-01 3.333333e-02 0.000000e+00
9.810127e-01 3.333333e-02 0.000000e+00
1.012658e+00 3.333333e-02 0.000000e+00
1.044304e+00 3.333333e-02 0.000000e+00
1.075949e+00 3.333333e-02 0.000000e+00
1.107595e+00 3.333333e-02 0.000000e+00
1.139241e+00 3.333333e-02 0.000000e+00
1.170886e+00 3.333333e-02 0.000000e+00
1.202532e+00 3.333333e-02 0.000000e+00
1.234177e+00 3.333333e-02 0.000000e+00
1.265823e+00 3.333333e-02 0.000000e+00
1.297468e+00 3.333333e-02 0.000000e+00
1.329114e+00 3.333333e-02 0.000000e+00
1.360759e+00 3.333333e-02 0.000000e+00
1.392405e+00 3.333333e-02 0.000000e+00
1.424051e+00 3.333333e-02 0.000000e+00
1.455696e+00 3.333333e-02 0.000000e+00
1.487342e+00 3.333333e-02 0.000000e+00
1.518987e+00 3.333333e-02 0.000000e+00
1.550633e+00 3.333333e-02 0.000000e+00
1.582278e+00 3.333333e-02 0.000000e+00
1.613924e+00 3.333333e-02 0.000000e+00
1.645570e+00 3.333333e-02 0.000000e+00
1.677215e+00 3.333333e-02 0.000000e+00
1.708861e+00 3.333333e-02 0.000000e+00
1.740506e+00 3.333333e-02 0.000000e+00
1.772152e+00 3.333333e-02 0.000000e+00
1.803797e+00 3.333333e-02 0.000000e+00
1.835443e+00 3.333333e-02 0.000000e+00
1.867089e+00 3.333333e-02 0.000000e+00
1.898734e+00 3.333333e-02 0.000000e+00
1.930380e+00 3.333333e-02 0.000000e+00
1.962025e+00 3.333333e-02 0.000000e+00
1.993671e+00 3.333333e-02 0.000000e+00
2.025316e+00 3.333333e-02 0.000000e+00
2.056962e+00 3.333333e-02 0.000000e+00
2.088608e+00 3.333333e-02 0.000000e+00
2.120253e+00 3.333333e-02 0.000000e+00
2.151899e+00 3.333333e-02 0.000000e+00
2.183544e+00 3.333333e-02 0.000000e+00
2.215190e+00 3.333333e-02 0.000000e+00
2.246835e+00 3.333333e-02 0.000000e+00
2.278481e+00 3.333333e-02 0.000000e+00
2.310127e+00 3.333333e-02 0.000000e+00
2.341772e+00 3.333333e-02 0.000000e+00
2.373418e+00 3.333333e-02 0.000000e+00
2.405063e+00 3.333333e-02 0.000000e+00
2.436709e+00 3.333333e-02 0.000000e+00
2.468354e+00 3.333333e-02 0.000000e+00
2.500000e+00 3.333333e-02 0.000000e+00
2.531646e+00 3.333333e-02 0.000000e+00
2.563291e+00 3.333333e-02 0.000000e+00
2.594937e+00 3.333333e-02 0.000000e+00
2.626582e+00 3.333333e-02 0.000000e+00
2.658228e+00 3.333333e-02 0.000000e+00
2.689873e+00 3.333333e-02 0.000000e+00
2.721519e+00 3.333333e-02 0.000000e+00
2.753165e+00 3.333333e-02 0.000000e+00
2.784810e+00 3.333333e-02 0.000000e+00
2.816456e+00 3.333333e-02 0.000000e+00
2.848101e+00 3.333333e-02 0.000000e+00
2.879747e+00 3.333333e-02 0.000000e+00
[...]
<PointData>
<DataArray Name="Velocity" type="Float64" format="ascii" NumberOfComponents="3">
0.000000e+00 0.000000e+00 0
0.000000e+00 0.000000e+00 0
0.000000e+00 0.000000e+00 0
0.000000e+00 0.000000e+00 0
0.000000e+00 0.000000e+00 0
0.000000e+00 0.000000e+00 0
0.000000e+00 0.000000e+00 0
0.000000e+00 0.000000e+00 0
0.000000e+00 0.000000e+00 0
0.000000e+00 0.000000e+00 0
0.000000e+00 0.000000e+00 0
0.000000e+00 0.000000e+00 0
0.000000e+00 0.000000e+00 0
0.000000e+00 0.000000e+00 0
0.000000e+00 0.000000e+00 0
0.000000e+00 0.000000e+00 0
0.000000e+00 0.000000e+00 0
0.000000e+00 0.000000e+00 0
0.000000e+00 0.000000e+00 0
3.678406e-17 0.000000e+00 0
0.000000e+00 0.000000e+00 0
0.000000e+00 0.000000e+00 0
0.000000e+00 0.000000e+00 0
1.996165e-18 0.000000e+00 0
0.000000e+00 0.000000e+00 0
0.000000e+00 0.000000e+00 0
0.000000e+00 0.000000e+00 0
4.928961e-17 0.000000e+00 0
0.000000e+00 0.000000e+00 0
0.000000e+00 0.000000e+00 0
0.000000e+00 0.000000e+00 0
1.535240e-18 0.000000e+00 0
0.000000e+00 0.000000e+00 0
0.000000e+00 0.000000e+00 0
0.000000e+00 0.000000e+00 0
0.000000e+00 0.000000e+00 0
0.000000e+00 0.000000e+00 0
0.000000e+00 0.000000e+00 0
-7.353694e-18 0.000000e+00 0
0.000000e+00 0.000000e+00 0
0.000000e+00 0.000000e+00 0
0.000000e+00 0.000000e+00 0
0.000000e+00 0.000000e+00 0
0.000000e+00 0.000000e+00 0
0.000000e+00 0.000000e+00 0
0.000000e+00 0.000000e+00 0
-4.571207e-18 0.000000e+00 0
0.000000e+00 0.000000e+00 0
0.000000e+00 0.000000e+00 0
0.000000e+00 0.000000e+00 0
0.000000e+00 0.000000e+00 0
0.000000e+00 0.000000e+00 0
0.000000e+00 0.000000e+00 0
0.000000e+00 0.000000e+00 0
-2.114110e-17 0.000000e+00 0
0.000000e+00 0.000000e+00 0
0.000000e+00 0.000000e+00 0
0.000000e+00 0.000000e+00 0
0.000000e+00 0.000000e+00 0
0.000000e+00 0.000000e+00 0
0.000000e+00 0.000000e+00 0
0.000000e+00 0.000000e+00 0
-1.853618e-17 0.000000e+00 0
0.000000e+00 0.000000e+00 0
0.000000e+00 0.000000e+00 0
0.000000e+00 0.000000e+00 0
0.000000e+00 0.000000e+00 0
0.000000e+00 0.000000e+00 0
0.000000e+00 0.000000e+00 0
0.000000e+00 0.000000e+00 0
0.000000e+00 0.000000e+00 0
0.000000e+00 0.000000e+00 0
0.000000e+00 0.000000e+00 0
0.000000e+00 0.000000e+00 0
0.000000e+00 0.000000e+00 0
0.000000e+00 0.000000e+00 0
0.000000e+00 0.000000e+00 0
0.000000e+00 0.000000e+00 0
0.000000e+00 0.000000e+00 0
0.000000e+00 0.000000e+00 0
0.000000e+00 0.000000e+00 0
0.000000e+00 0.000000e+00 0
0.000000e+00 0.000000e+00 0
0.000000e+00 0.000000e+00 0
0.000000e+00 0.000000e+00 0
0.000000e+00 0.000000e+00 0
0.000000e+00 0.000000e+00 0
0.000000e+00 0.000000e+00 0
0.000000e+00 0.000000e+00 0
0.000000e+00 0.000000e+00 0
0.000000e+00 0.000000e+00 0
0.000000e+00 0.000000e+00 0
0.000000e+00 0.000000e+00 0
0.000000e+00 0.000000e+00 0
0.000000e+00 0.000000e+00 0
0.000000e+00 0.000000e+00 0
0.000000e+00 0.000000e+00 0
0.000000e+00 0.000000e+00 0
0.000000e+00 0.000000e+00 0
0.000000e+00 0.000000e+00 0
0.000000e+00 0.000000e+00 0
0.000000e+00 0.000000e+00 0
0.000000e+00 0.000000e+00 0
0.000000e+00 0.000000e+00 0
0.000000e+00 0.000000e+00 0
0.000000e+00 0.000000e+00 0
0.000000e+00 0.000000e+00 0
0.000000e+00 0.000000e+00 0
0.000000e+00 0.000000e+00 0
0.000000e+00 0.000000e+00 0
0.000000e+00 0.000000e+00 0
0.000000e+00 0.000000e+00 0
0.000000e+00 0.000000e+00 0
0.000000e+00 0.000000e+00 0
0.000000e+00 0.000000e+00 0
0.000000e+00 0.000000e+00 0
0.000000e+00 0.000000e+00 0
0.000000e+00 0.000000e+00 0
0.000000e+00 0.000000e+00 0
0.000000e+00 0.000000e+00 0
0.000000e+00 0.000000e+00 0
0.000000e+00 0.000000e+00 0
0.000000e+00 0.000000e+00 0
0.000000e+00 0.000000e+00 0
0.000000e+00 0.000000e+00 0
0.000000e+00 0.000000e+00 0
0.000000e+00 0.000000e+00 0
0.000000e+00 0.000000e+00 0
0.000000e+00 0.000000e+00 0
0.000000e+00 0.000000e+00 0
0.000000e+00 0.000000e+00 0
0.000000e+00 0.000000e+00 0
0.000000e+00 0.000000e+00 0
0.000000e+00 0.000000e+00 0
0.000000e+00 0.000000e+00 0
0.000000e+00 0.000000e+00 0
0.000000e+00 0.000000e+00 0
0.000000e+00 0.000000e+00 0
0.000000e+00 0.000000e+00 0
0.000000e+00 0.000000e+00 0
0.000000e+00 0.000000e+00 0
0.000000e+00 0.000000e+00 0
0.000000e+00 0.000000e+00 0
0.000000e+00 0.000000e+00 0
0.000000e+00 0.000000e+00 0
0.000000e+00 0.000000e+00 0
0.000000e+00 0.000000e+00 0
0.000000e+00 0.000000e+00 0
0.000000e+00 0.000000e+00 0
0.000000e+00 0.000000e+00 0
0.000000e+00 0.000000e+00 0
0.000000e+00 0.000000e+00 0
0.000000e+00 0.000000e+00 0
0.000000e+00 0.000000e+00 0
0.000000e+00 0.000000e+00 0
0.000000e+00 0.000000e+00 0
0.000000e+00 0.000000e+00 0
0.000000e+00 0.000000e+00 0
0.000000e+00 0.000000e+00 0
1.731144e+00 -4.653969e-05 0
1.731144e+00 -4.969066e-05 0
1.731185e+00 -4.455482e-05 0
1.731211e+00 -2.091183e-05 0
1.731212e+00 1.384041e-05 0
1.731176e+00 5.843867e-05 0
1.731092e+00 1.156664e-04 0
1.730947e+00 1.874409e-04 0
1.730727e+00 2.756137e-04 0
1.730414e+00 3.822153e-04 0
1.729990e+00 5.095381e-04 0
1.729434e+00 6.601768e-04 0
1.728723e+00 8.370924e-04 0
1.727830e+00 1.043644e-03 0
1.726725e+00 1.283601e-03 0
1.725375e+00 1.561257e-03 0
1.723741e+00 1.881538e-03 0
1.721780e+00 2.250106e-03 0
1.719444e+00 2.673594e-03 0
1.716677e+00 3.159891e-03 0
1.713414e+00 3.718458e-03 0
1.709582e+00 4.360682e-03 0
1.705094e+00 5.100175e-03 0
1.699852e+00 5.952860e-03 0
1.693739e+00 6.936532e-03 0
1.686619e+00 8.069272e-03 0
1.678339e+00 9.365310e-03 0
1.668732e+00 1.082603e-02 0
1.657635e+00 1.242207e-02 0
1.644925e+00 1.406234e-02 0
1.630599e+00 1.555091e-02 0
1.614910e+00 1.655414e-02 0
1.598547e+00 1.664995e-02 0
1.582711e+00 1.556572e-02 0
1.568730e+00 1.348591e-02 0
1.557284e+00 1.093935e-02 0
1.548421e+00 8.411562e-03 0
1.541837e+00 6.183985e-03 0
1.537114e+00 4.356569e-03 0
1.533843e+00 2.920858e-03 0
1.531678e+00 1.818655e-03 0
1.530345e+00 9.721300e-04 0
1.529642e+00 2.491843e-04 0
1.529413e+00 -4.020638e-04 0
1.529560e+00 -9.242100e-04 0
1.529986e+00 -1.303951e-03 0
1.530605e+00 -1.555903e-03 0
1.531342e+00 -1.698597e-03 0
1.532137e+00 -1.750845e-03 0
1.532940e+00 -1.730069e-03 0
1.533711e+00 -1.651662e-03 0
1.534418e+00 -1.528872e-03 0
1.535039e+00 -1.372909e-03 0
1.535555e+00 -1.193126e-03 0
1.535954e+00 -9.971317e-04 0
1.536228e+00 -7.904953e-04 0
1.536373e+00 -5.770112e-04 0
1.536396e+00 -3.620509e-04 0
1.536311e+00 -1.637800e-04 0
1.536130e+00 -1.233691e-05 0
1.535859e+00 9.457263e-05 0
1.535509e+00 1.822342e-04 0
1.535084e+00 2.602281e-04 0
1.534591e+00 3.318073e-04 0
1.534035e+00 3.983351e-04 0
1.533418e+00 4.605211e-04 0
1.532746e+00 5.188084e-04 0
1.532021e+00 5.735086e-04 0
1.531246e+00 6.248560e-04 0
1.530424e+00 6.730384e-04 0
1.529559e+00 7.182203e-04 0
1.528653e+00 7.605572e-04 0
1.527708e+00 8.001995e-04 0
1.526727e+00 8.372875e-04 0
1.525711e+00 8.719461e-04 0
1.524664e+00 9.042871e-04 0
1.523587e+00 9.344171e-04 0
1.522483e+00 9.624464e-04 0
1.521352e+00 9.884907e-04 0
1.520197e+00 1.012664e-03 0
1.519020e+00 1.035067e-03 0
1.517822e+00 1.055788e-03 0
1.516604e+00 1.074901e-03 0
1.515369e+00 1.092480e-03 0
1.514116e+00 1.108602e-03 0
1.512849e+00 1.123352e-03 0
1.511567e+00 1.136810e-03 0
1.510272e+00 1.149048e-03 0
1.508966e+00 1.160129e-03 0
1.507648e+00 1.170107e-03 0
1.506321e+00 1.179036e-03 0
1.504985e+00 1.186971e-03 0
1.503641e+00 1.193968e-03 0
1.502290e+00 1.200082e-03 0
1.500932e+00 1.205364e-03 0
1.499568e+00 1.209854e-03 0
1.498200e+00 1.213589e-03 0
1.496828e+00 1.216602e-03 0
1.495451e+00 1.218931e-03 0
1.494072e+00 1.220617e-03 0
1.492691e+00 1.221699e-03 0
1.491307e+00 1.222213e-03 0
1.489922e+00 1.222187e-03 0
1.488537e+00 1.221642e-03 0
1.487151e+00 1.220600e-03 0
1.485765e+00 1.219084e-03 0
1.484379e+00 1.217122e-03 0
1.482994e+00 1.214740e-03 0
1.481611e+00 1.211962e-03 0
1.480229e+00 1.208806e-03 0
1.478850e+00 1.205288e-03 0
1.477472e+00 1.201419e-03 0
1.476097e+00 1.197213e-03 0
1.474726e+00 1.192685e-03 0
1.473357e+00 1.187850e-03 0
1.471992e+00 1.182724e-03 0
1.470631e+00 1.177318e-03 0
1.469274e+00 1.171644e-03 0
1.467921e+00 1.165708e-03 0
1.466573e+00 1.159515e-03 0
1.465229e+00 1.153071e-03 0
1.463891e+00 1.146382e-03 0
1.462558e+00 1.139456e-03 0
1.461231e+00 1.132301e-03 0
1.459909e+00 1.124924e-03 0
1.458593e+00 1.117331e-03 0
1.457284e+00 1.109523e-03 0
1.455980e+00 1.101503e-03 0
1.454684e+00 1.093271e-03 0
1.453394e+00 1.084829e-03 0
1.452111e+00 1.076179e-03 0
1.450836e+00 1.067320e-03 0
1.449567e+00 1.058255e-03 0
1.448307e+00 1.048982e-03 0
1.447054e+00 1.039500e-03 0
1.445809e+00 1.029808e-03 0
1.444573e+00 1.019905e-03 0
1.443345e+00 1.009786e-03 0
1.442126e+00 9.994477e-04 0
1.440915e+00 9.888852e-04 0
1.439714e+00 9.780916e-04 0
1.438522e+00 9.670583e-04 0
1.437340e+00 9.557730e-04 0
1.436168e+00 9.442190e-04 0
1.435005e+00 9.323731e-04 0
1.433853e+00 9.202022e-04 0
1.432712e+00 9.076583e-04 0
1.431582e+00 8.946714e-04 0
1.430464e+00 8.811398e-04 0
1.429358e+00 8.669096e-04 0
1.428265e+00 8.517441e-04 0
1.427186e+00 8.352704e-04 0
1.426123e+00 8.168662e-04 0
1.425077e+00 7.954165e-04 0
1.424052e+00 7.685014e-04 0
1.423053e+00 7.316150e-04 0
1.422089e+00 6.416798e-04 0
1.421176e+00 7.365713e-04 0
1.421176e+00 8.997600e-04 0
2.696169e+00 -9.210051e-05 0
2.696169e+00 -8.929915e-05 0
2.696204e+00 -7.093141e-05 0
2.696226e+00 -2.848206e-05 0
2.696229e+00 3.666335e-05 0
2.696200e+00 1.255684e-04 0
2.696129e+00 2.406524e-04 0
2.696005e+00 3.849808e-04 0
2.695813e+00 5.621156e-04 0
2.695540e+00 7.761581e-04 0
2.695169e+00 1.031765e-03 0
2.694682e+00 1.334213e-03 0
2.694057e+00 1.689468e-03 0
2.693270e+00 2.104220e-03 0
2.692296e+00 2.586029e-03 0
2.691104e+00 3.143487e-03 0
2.689661e+00 3.786400e-03 0
2.687928e+00 4.526138e-03 0
2.685863e+00 5.376074e-03 0
2.683415e+00 6.352108e-03 0
2.680529e+00 7.473332e-03 0
2.677139e+00 8.762728e-03 0
2.673171e+00 1.024783e-02 0
2.668536e+00 1.196111e-02 0
2.663128e+00 1.393943e-02 0
2.656825e+00 1.622153e-02 0
2.649477e+00 1.884074e-02 0
2.640911e+00 2.180809e-02 0
2.630928e+00 2.507713e-02 0
2.619319e+00 2.847815e-02 0
2.605926e+00 3.161498e-02 0
2.590792e+00 3.376021e-02 0
2.574516e+00 3.391582e-02 0
2.558711e+00 3.140771e-02 0
2.545478e+00 2.678350e-02 0
2.535359e+00 2.139247e-02 0
2.527983e+00 1.627122e-02 0
2.522741e+00 1.191039e-02 0
2.519080e+00 8.420779e-03 0
2.516567e+00 5.726151e-03 0
2.514887e+00 3.684253e-03 0
2.513806e+00 2.143736e-03 0
2.513149e+00 9.816849e-04 0
2.512725e+00 8.682258e-05 0
2.512427e+00 -6.033251e-04 0
2.512209e+00 -1.100103e-03 0
2.512039e+00 -1.428144e-03 0
2.511893e+00 -1.614030e-03 0
2.511755e+00 -1.682942e-03 0
2.511610e+00 -1.657434e-03 0
2.511448e+00 -1.557145e-03 0
2.511260e+00 -1.398898e-03 0
2.511039e+00 -1.196977e-03 0
2.510782e+00 -9.635208e-04 0
2.510483e+00 -7.089591e-04 0
2.510143e+00 -4.416618e-04 0
2.509768e+00 -1.766626e-04 0
2.509365e+00 6.535030e-05 0
2.508934e+00 2.801036e-04 0
2.508467e+00 4.756192e-04 0
2.507943e+00 6.542703e-04 0
2.507356e+00 8.169056e-04 0
2.506707e+00 9.665602e-04 0
2.506000e+00 1.105622e-03 0
2.505237e+00 1.235625e-03 0
2.504422e+00 1.357571e-03 0
2.503558e+00 1.472160e-03 0
2.502646e+00 1.579919e-03 0
2.501691e+00 1.681263e-03 0
2.500694e+00 1.776545e-03 0
2.499658e+00 1.866082e-03 0
2.498585e+00 1.950169e-03 0
2.497478e+00 2.029084e-03 0
2.496337e+00 2.103083e-03 0
2.495166e+00 2.172405e-03 0
2.493966e+00 2.237271e-03 0
2.492739e+00 2.297898e-03 0
2.491486e+00 2.354504e-03 0
2.490209e+00 2.407300e-03 0
2.488910e+00 2.456487e-03 0
2.487590e+00 2.502249e-03 0
2.486250e+00 2.544751e-03 0
2.484892e+00 2.584150e-03 0
2.483517e+00 2.620602e-03 0
2.482125e+00 2.654263e-03 0
2.480719e+00 2.685285e-03 0
2.479300e+00 2.713812e-03 0
2.477867e+00 2.739973e-03 0
2.476423e+00 2.763888e-03 0
2.474967e+00 2.785667e-03 0
2.473502e+00 2.805421e-03 0
2.472027e+00 2.823257e-03 0
2.470544e+00 2.839282e-03 0
2.469053e+00 2.853594e-03 0
2.467555e+00 2.866281e-03 0
2.466050e+00 2.877424e-03 0
2.464539e+00 2.887097e-03 0
2.463024e+00 2.895372e-03 0
2.461503e+00 2.902325e-03 0
2.459978e+00 2.908029e-03 0
2.458450e+00 2.912554e-03 0
2.456919e+00 2.915959e-03 0
2.455384e+00 2.918296e-03 0
2.453848e+00 2.919614e-03 0
2.452309e+00 2.919961e-03 0
2.450769e+00 2.919385e-03 0
2.449228e+00 2.917935e-03 0
2.447686e+00 2.915656e-03 0
2.446144e+00 2.912589e-03 0
2.444602e+00 2.908766e-03 0
2.443060e+00 2.904219e-03 0
2.441518e+00 2.898975e-03 0
2.439977e+00 2.893064e-03 0
2.438438e+00 2.886513e-03 0
2.436899e+00 2.879350e-03 0
2.435362e+00 2.871599e-03 0
2.433828e+00 2.863283e-03 0
2.432295e+00 2.854418e-03 0
2.430764e+00 2.845019e-03 0
2.429236e+00 2.835099e-03 0
2.427711e+00 2.824671e-03 0
2.426189e+00 2.813748e-03 0
2.424670e+00 2.802346e-03 0
2.423155e+00 2.790475e-03 0
2.421643e+00 2.778147e-03 0
2.420135e+00 2.765368e-03 0
2.418631e+00 2.752143e-03 0
2.417131e+00 2.738475e-03 0
2.415636e+00 2.724369e-03 0
2.414145e+00 2.709827e-03 0
2.412659e+00 2.694851e-03 0
2.411178e+00 2.679441e-03 0
2.409703e+00 2.663598e-03 0
2.408233e+00 2.647320e-03 0
2.406768e+00 2.630605e-03 0
2.405309e+00 2.613448e-03 0
2.403856e+00 2.595845e-03 0
2.402410e+00 2.577789e-03 0
2.400969e+00 2.559271e-03 0
2.399536e+00 2.540280e-03 0
2.398109e+00 2.520803e-03 0
2.396690e+00 2.500821e-03 0
2.395277e+00 2.480310e-03 0
2.393873e+00 2.459235e-03 0
2.392476e+00 2.437549e-03 0
2.391087e+00 2.415187e-03 0
2.389706e+00 2.392051e-03 0
2.388335e+00 2.368005e-03 0
2.386972e+00 2.342847e-03 0
2.385619e+00 2.316274e-03 0
2.384277e+00 2.287827e-03 0
2.382945e+00 2.256790e-03 0
2.381626e+00 2.222011e-03 0
2.380319e+00 2.181540e-03 0
2.379028e+00 2.131975e-03 0
2.377754e+00 2.067043e-03 0
2.376498e+00 1.977079e-03 0
2.375222e+00 1.960600e-03 0
2.375222e+00 1.996751e-03 0
3.205879e+00 -1.397510e-04 0
3.205879e+00 -1.332129e-04 0
3.205921e+00 -1.053685e-04 0
3.205954e+00 -4.763966e-05 0
3.205972e+00 4.115040e-05 0
3.205968e+00 1.631846e-04 0
3.205936e+00 3.216368e-04 0
3.205865e+00 5.205879e-04 0
3.205747e+00 7.649688e-04 0
3.205571e+00 1.060496e-03 0
3.205325e+00 1.413691e-03 0
3.204994e+00 1.831944e-03 0
3.204564e+00 2.323534e-03 0
3.204018e+00 2.897737e-03 0
3.203334e+00 3.564991e-03 0
3.202492e+00 4.337057e-03 0
3.201466e+00 5.227383e-03 0
3.200230e+00 6.251538e-03 0
3.198751e+00 7.427801e-03 0
3.196995e+00 8.777950e-03 0
3.194923e+00 1.032817e-02 0
3.192489e+00 1.211017e-02 0
3.189640e+00 1.416246e-02 0
3.186315e+00 1.653152e-02 0
3.182436e+00 1.927261e-02 0
3.177911e+00 2.244911e-02 0
3.172614e+00 2.612779e-02 0
3.166374e+00 3.036426e-02 0
3.158945e+00 3.516503e-02 0
3.149956e+00 4.039775e-02 0
3.138880e+00 4.559920e-02 0
3.125107e+00 4.963919e-02 0
3.108553e+00 5.044284e-02 0
3.091743e+00 4.615308e-02 0
3.079661e+00 3.808362e-02 0
3.072052e+00 2.936740e-02 0
3.067447e+00 2.170217e-02 0
3.064657e+00 1.556178e-02 0
3.062947e+00 1.085964e-02 0
3.061893e+00 7.337717e-03 0
3.061251e+00 4.727698e-03 0
3.060872e+00 2.802613e-03 0
3.060653e+00 1.387982e-03 0
3.060526e+00 3.584832e-04 0
3.060418e+00 -3.809802e-04 0
3.060299e+00 -8.951628e-04 0
3.060158e+00 -1.223379e-03 0
3.059990e+00 -1.399452e-03 0
3.059793e+00 -1.452275e-03 0
3.059569e+00 -1.406426e-03 0
3.059317e+00 -1.282735e-03 0
3.059039e+00 -1.098798e-03 0
3.058735e+00 -8.694261e-04 0
3.058405e+00 -6.073253e-04 0
3.058051e+00 -3.242317e-04 0
3.057678e+00 -3.736635e-05 0
3.057285e+00 2.427841e-04 0
3.056868e+00 5.171115e-04 0
3.056414e+00 7.815374e-04 0
3.055916e+00 1.031332e-03 0
3.055375e+00 1.265460e-03 0
3.054788e+00 1.484103e-03 0
3.054156e+00 1.688535e-03 0
3.053480e+00 1.880181e-03 0
3.052762e+00 2.060241e-03 0
3.052004e+00 2.229665e-03 0
3.051208e+00 2.389205e-03 0
3.050376e+00 2.539475e-03 0
3.049509e+00 2.680993e-03 0
3.048610e+00 2.814217e-03 0
3.047681e+00 2.939570e-03 0
3.046722e+00 3.057447e-03 0
3.045737e+00 3.168220e-03 0
3.044725e+00 3.272232e-03 0
3.043690e+00 3.369808e-03 0
3.042631e+00 3.461258e-03 0
3.041552e+00 3.546887e-03 0
3.040452e+00 3.626993e-03 0
3.039333e+00 3.701862e-03 0
3.038196e+00 3.771761e-03 0
3.037042e+00 3.836936e-03 0
3.035873e+00 3.897618e-03 0
3.034689e+00 3.954029e-03 0
3.033491e+00 4.006388e-03 0
3.032280e+00 4.054912e-03 0
3.031057e+00 4.099805e-03 0
3.029823e+00 4.141258e-03 0
3.028579e+00 4.179447e-03 0
3.027324e+00 4.214535e-03 0
3.026061e+00 4.246680e-03 0
3.024789e+00 4.276034e-03 0
3.023509e+00 4.302747e-03 0
3.022222e+00 4.326962e-03 0
3.020928e+00 4.348810e-03 0
3.019629e+00 4.368410e-03 0
3.018323e+00 4.385873e-03 0
3.017012e+00 4.401305e-03 0
3.015696e+00 4.414809e-03 0
3.014376e+00 4.426489e-03 0
3.013052e+00 4.436444e-03 0
3.011725e+00 4.444764e-03 0
3.010394e+00 4.451527e-03 0
3.009061e+00 4.456806e-03 0
3.007725e+00 4.460670e-03 0
3.006387e+00 4.463188e-03 0
3.005046e+00 4.464429e-03 0
3.003705e+00 4.464458e-03 0
3.002362e+00 4.463332e-03 0
3.001018e+00 4.461103e-03 0
2.999673e+00 4.457819e-03 0
2.998327e+00 4.453520e-03 0
2.996982e+00 4.448250e-03 0
2.995636e+00 4.442048e-03 0
2.994290e+00 4.434953e-03 0
2.992944e+00 4.427001e-03 0
2.991599e+00 4.418226e-03 0
2.990255e+00 4.408653e-03 0
2.988912e+00 4.398306e-03 0
2.987569e+00 4.387206e-03 0
2.986228e+00 4.375372e-03 0
2.984888e+00 4.362824e-03 0
2.983550e+00 4.349580e-03 0
2.982214e+00 4.335660e-03 0
2.980879e+00 4.321076e-03 0
2.979547e+00 4.305842e-03 0
2.978217e+00 4.289965e-03 0
2.976889e+00 4.273453e-03 0
2.975564e+00 4.256311e-03 0
2.974242e+00 4.238542e-03 0
2.972922e+00 4.220151e-03 0
2.971606e+00 4.201140e-03 0
2.970292e+00 4.181509e-03 0
2.968982e+00 4.161257e-03 0
2.967675e+00 4.140381e-03 0
2.966372e+00 4.118878e-03 0
2.965073e+00 4.096741e-03 0
2.963778e+00 4.073962e-03 0
2.962487e+00 4.050532e-03 0
2.961200e+00 4.026439e-03 0
2.959918e+00 4.001668e-03 0
2.958640e+00 3.976201e-03 0
2.957368e+00 3.950013e-03 0
2.956100e+00 3.923070e-03 0
2.954837e+00 3.895330e-03 0
2.953580e+00 3.866730e-03 0
2.952328e+00 3.837186e-03 0
2.951082e+00 3.806576e-03 0
2.949842e+00 3.774727e-03 0
2.948608e+00 3.741387e-03 0
2.947381e+00 3.706189e-03 0
2.946161e+00 3.668587e-03 0
2.944947e+00 3.627767e-03 0
2.943741e+00 3.582499e-03 0
2.942542e+00 3.530942e-03 0
2.941350e+00 3.470421e-03 0
2.940163e+00 3.397570e-03 0
2.938976e+00 3.309201e-03 0
2.937779e+00 3.225179e-03 0
2.937779e+00 3.189568e-03 0
3.480606e+00 -1.926454e-04 0
3.480606e+00 -1.840710e-04 0
3.480656e+00 -1.503965e-04 0
3.480702e+00 -8.266226e-05 0
3.480738e+00 2.115148e-05 0
3.480762e+00 1.639779e-04 0
3.480768e+00 3.499348e-04 0
3.480751e+00 5.839609e-04 0
3.480705e+00 8.720133e-04 0
3.480622e+00 1.221018e-03 0
3.480495e+00 1.638903e-03 0
3.480314e+00 2.134565e-03 0
3.480067e+00 2.717923e-03 0
3.479743e+00 3.400027e-03 0
3.479328e+00 4.193163e-03 0
3.478807e+00 5.111120e-03 0
3.478163e+00 6.169546e-03 0
3.477379e+00 7.386444e-03 0
3.476433e+00 8.782904e-03 0
3.475305e+00 1.038396e-02 0
3.473971e+00 1.221977e-02 0
3.472404e+00 1.432718e-02 0
3.470574e+00 1.675156e-02 0
3.468446e+00 1.954942e-02 0
3.465977e+00 2.279176e-02 0
3.463108e+00 2.656832e-02 0
3.459753e+00 3.099265e-02 0
3.455771e+00 3.620597e-02 0
3.450908e+00 4.237008e-02 0
3.444667e+00 4.961203e-02 0
3.436049e+00 5.778948e-02 0
3.423120e+00 6.570555e-02 0
3.402904e+00 6.906015e-02 0
3.379096e+00 6.184088e-02 0
3.367856e+00 4.752429e-02 0
3.363839e+00 3.425821e-02 0
3.362887e+00 2.406070e-02 0
3.363052e+00 1.665011e-02 0
3.363546e+00 1.133261e-02 0
3.364080e+00 7.512858e-03 0
3.364558e+00 4.759535e-03 0
3.364955e+00 2.773120e-03 0
3.365263e+00 1.346325e-03 0
3.365482e+00 3.351987e-04 0
3.365618e+00 -3.642720e-04 0
3.365670e+00 -8.265542e-04 0
3.365647e+00 -1.102418e-03 0
3.365556e+00 -1.230053e-03 0
3.365408e+00 -1.239640e-03 0
3.365212e+00 -1.155726e-03 0
3.364974e+00 -9.986141e-04 0
3.364701e+00 -7.851852e-04 0
3.364398e+00 -5.291850e-04 0
3.364069e+00 -2.434698e-04 0
3.363719e+00 5.712654e-05 0
3.363348e+00 3.647738e-04 0
3.362950e+00 6.758310e-04 0
3.362524e+00 9.836437e-04 0
3.362069e+00 1.282918e-03 0
3.361584e+00 1.569862e-03 0
3.361068e+00 1.842608e-03 0
3.360519e+00 2.100571e-03 0
3.359938e+00 2.344042e-03 0
3.359325e+00 2.573717e-03 0
3.358681e+00 2.790382e-03 0
3.358007e+00 2.994794e-03 0
3.357304e+00 3.187632e-03 0
3.356575e+00 3.369506e-03 0
3.355820e+00 3.540971e-03 0
3.355040e+00 3.702539e-03 0
3.354238e+00 3.854696e-03 0
3.353414e+00 3.997901e-03 0