<?xml version="1.0"?>
<VTKFile type="StructuredGrid">
<StructuredGrid WholeExtent="0 158 0 30 0 0 ">
<Piece Extent="0 158 0 30 0 0 ">
<Points>
<DataArray type="Float64" format="ascii" NumberOfComponents="3">
0.000000e+00 0.000000e+00 0.000000e+00
3.164557e-02 0.000000e+00 0.000000e+00
6.329114e-02 0.000000e+00 0.000000e+00
9.493671e-02 0.000000e+00 0.000000e+00
1.265823e-01 0.000000e+00 0.000000e+00
1.582278e-01 0.000000e+00 0.000000e+00
1.898734e-01 0.000000e+00 0.000000e+00
2.215190e-01 0.000000e+00 0.000000e+00
2.531646e-01 0.000000e+00 0.000000e+00
2.848101e-01 0.000000e+00 0.000000e+00
3.164557e-01 0.000000e+00 0.000000e+00
3.481013e-01 0.000000e+00 0.000000e+00
3.797468e-01 0.000000e+00 0.000000e+00
4.113924e-01 0.000000e+00 0.000000e+00
4.430380e-01 0.000000e+00 0.000000e+00
4.746835e-01 0.000000e+00 0.000000e+00
5.063291e-01 0.000000e+00 0.000000e+00
5.379747e-01 0.000000e+00 0.000000e+00
5.696203e-01 0.000000e+00 0.000000e+00
6.012658e-01 0.000000e+00 0.000000e+00
6.329114e-01 0.000000e+00 0.000000e+00
6.645570e-01 0.000000e+00 0.000000e+00
6.962025e-01 0.000000e+00 0.000000e+00
7.278481e-01 0.000000e+00 0.000000e+00
7.594937e-01 0.000000e+00 0.000000e+00
7.911392e-01 0.000000e+00 0.000000e+00
8.227848e-01 0.000000e+00 0.000000e+00
8.544304e-01 0.000000e+00 0.000000e+00
8.860759e-01 0.000000e+00 0.000000e+00
9.177215e-01 0.000000e+00 0.000000e+00
9.493671e-01 0.000000e+00 0.000000e+00
9.810127e-01 0.000000e+00 0.000000e+00
1.012658e+00 0.000000e+00 0.000000e+00
1.044304e+00 0.000000e+00 0.000000e+00
1.075949e+00 0.000000e+00 0.000000e+00
1.107595e+00 0.000000e+00 0.000000e+00
1.139241e+00 0.000000e+00 0.000000e+00
1.170886e+00 0.000000e+00 0.000000e+00
1.202532e+00 0.000000e+00 0.000000e+00
1.234177e+00 0.000000e+00 0.000000e+00
1.265823e+00 0.000000e+00 0.000000e+00
1.297468e+00 0.000000e+00 0.000000e+00
1.329114e+00 0.000000e+00 0.000000e+00
1.360759e+00 0.000000e+00 0.000000e+00
1.392405e+00 0.000000e+00 0.000000e+00
1.424051e+00 0.000000e+00 0.000000e+00
1.455696e+00 0.000000e+00 0.000000e+00
1.487342e+00 0.000000e+00 0.000000e+00
1.518987e+00 0.000000e+00 0.000000e+00
1.550633e+00 0.000000e+00 0.000000e+00
1.582278e+00 0.000000e+00 0.000000e+00
1.613924e+00 0.000000e+00 0.000000e+00
1.645570e+00 0.000000e+00 0.000000e+00
1.677215e+00 0.000000e+00 0.000000e+00
1.708861e+00 0.000000e+00 0.000000e+00
1.740506e+00 0.000000e+00 0.000000e+00
1.772152e+00 0.000000e+00 0.000000e+00
1.803797e+00 0.000000e+00 0.000000e+00
1.835443e+00 0.000000e+00 0.000000e+00
1.867089e+00 0.000000e+00 0.000000e+00
1.898734e+00 0.000000e+00 0.000000e+00
1.930380e+00 0.000000e+00 0.000000e+00
1.962025e+00 0.000000e+00 0.000000e+00
1.993671e+00 0.000000e+00 0.000000e+00
2.025316e+00 0.000000e+00 0.000000e+00
2.056962e+00 0.000000e+00 0.000000e+00
2.088608e+00 0.000000e+00 0.000000e+00
2.120253e+00 0.000000e+00 0.000000e+00
2.151899e+00 0.000000e+00 0.000000e+00
2.183544e+00 0.000000e+00 0.000000e+00
2.215190e+00 0.000000e+00 0.000000e+00
2.246835e+00 0.000000e+00 0.000000e+00
2.278481e+00 0.000000e+00 0.000000e+00
2.310127e+00 0.000000e+00 0.000000e+00
2.341772e+00 0.000000e+00 0.000000e+00
2.373418e+00 0.000000e+00 0.000000e+00
2.405063e+00 0.000000e+00 0.000000e+00
2.436709e+00 0.000000e+00 0.000000e+00
2.468354e+00 0.000000e+00 0.000000e+00
2.500000e+00 0.000000e+00 0.000000e+00
2.531646e+00 0.000000e+00 0.000000e+00
2.563291e+00 0.000000e+00 0.000000e+00
2.594937e+00 0.000000e+00 0.000000e+00
2.626582e+00 0.000000e+00 0.000000e+00
2.658228e+00 0.000000e+00 0.000000e+00
2.689873e+00 0.000000e+00 0.000000e+00
2.721519e+00 0.000000e+00 0.000000e+00
2.753165e+00 0.000000e+00 0.000000e+00
2.784810e+00 0.000000e+00 0.000000e+00
2.816456e+00 0.000000e+00 0.000000e+00
2.848101e+00 0.000000e+00 0.000000e+00
2.879747e+00 0.000000e+00 0.000000e+00
2.911392e+00 0.000000e+00 0.000000e+00
2.943038e+00 0.000000e+00 0.000000e+00
2.974684e+00 0.000000e+00 0.000000e+00
3.006329e+00 0.000000e+00 0.000000e+00
3.037975e+00 0.000000e+00 0.000000e+00
3.069620e+00 0.000000e+00 0.000000e+00
3.101266e+00 0.000000e+00 0.000000e+00
3.132911e+00 0.000000e+00 0.000000e+00
3.164557e+00 0.000000e+00 0.000000e+00
3.196203e+00 0.000000e+00 0.000000e+00
3.227848e+00 0.000000e+00 0.000000e+00
3.259494e+00 0.000000e+00 0.000000e+00
3.291139e+00 0.000000e+00 0.000000e+00
3.322785e+00 0.000000e+00 0.000000e+00
3.354430e+00 0.000000e+00 0.000000e+00
3.386076e+00 0.000000e+00 0.000000e+00
3.417722e+00 0.000000e+00 0.000000e+00
3.449367e+00 0.000000e+00 0.000000e+00
3.481013e+00 0.000000e+00 0.000000e+00
3.512658e+00 0.000000e+00 0.000000e+00
3.544304e+00 0.000000e+00 0.000000e+00
3.575949e+00 0.000000e+00 0.000000e+00
3.607595e+00 0.000000e+00 0.000000e+00
3.639241e+00 0.000000e+00 0.000000e+00
3.670886e+00 0.000000e+00 0.000000e+00
3.702532e+00 0.000000e+00 0.000000e+00
3.734177e+00 0.000000e+00 0.000000e+00
3.765823e+00 0.000000e+00 0.000000e+00
3.797468e+00 0.000000e+00 0.000000e+00
3.829114e+00 0.000000e+00 0.000000e+00
3.860759e+00 0.000000e+00 0.000000e+00
3.892405e+00 0.000000e+00 0.000000e+00
3.924051e+00 0.000000e+00 0.000000e+00
3.955696e+00 0.000000e+00 0.000000e+00
3.987342e+00 0.000000e+00 0.000000e+00
4.018987e+00 0.000000e+00 0.000000e+00
4.050633e+00 0.000000e+00 0.000000e+00
4.082278e+00 0.000000e+00 0.000000e+00
4.113924e+00 0.000000e+00 0.000000e+00
4.145570e+00 0.000000e+00 0.000000e+00
4.177215e+00 0.000000e+00 0.000000e+00
4.208861e+00 0.000000e+00 0.000000e+00
4.240506e+00 0.000000e+00 0.000000e+00
4.272152e+00 0.000000e+00 0.000000e+00
4.303797e+00 0.000000e+00 0.000000e+00
4.335443e+00 0.000000e+00 0.000000e+00
4.367089e+00 0.000000e+00 0.000000e+00
4.398734e+00 0.000000e+00 0.000000e+00
4.430380e+00 0.000000e+00 0.000000e+00
4.462025e+00 0.000000e+00 0.000000e+00
4.493671e+00 0.000000e+00 0.000000e+00
4.525316e+00 0.000000e+00 0.000000e+00
4.556962e+00 0.000000e+00 0.000000e+00
4.588608e+00 0.000000e+00 0.000000e+00
4.620253e+00 0.000000e+00 0.000000e+00
4.651899e+00 0.000000e+00 0.000000e+00
4.683544e+00 0.000000e+00 0.000000e+00
4.715190e+00 0.000000e+00 0.000000e+00
4.746835e+00 0.000000e+00 0.000000e+00
4.778481e+00 0.000000e+00 0.000000e+00
4.810127e+00 0.000000e+00 0.000000e+00
4.841772e+00 0.000000e+00 0.000000e+00
4.873418e+00 0.000000e+00 0.000000e+00
4.905063e+00 0.000000e+00 0.000000e+00
4.936709e+00 0.000000e+00 0.000000e+00
4.968354e+00 0.000000e+00 0.000000e+00
5.000000e+00 0.000000e+00 0.000000e+00
0.000000e+00 3.333333e-02 0.000000e+00
3.164557e-02 3.333333e-02 0.000000e+00
6.329114e-02 3.333333e-02 0.000000e+00
9.493671e-02 3.333333e-02 0.000000e+00
1.265823e-01 3.333333e-02 0.000000e+00
1.582278e-01 3.333333e-02 0.000000e+00
1.898734e-01 3.333333e-02 0.000000e+00
2.215190e-01 3.333333e-02 0.000000e+00
2.531646e-01 3.333333e-02 0.000000e+00
2.848101e-01 3.333333e-02 0.000000e+00
3.164557e-01 3.333333e-02 0.000000e+00
3.481013e-01 3.333333e-02 0.000000e+00
3.797468e-01 3.333333e-02 0.000000e+00
4.113924e-01 3.333333e-02 0.000000e+00
4.430380e-01 3.333333e-02 0.000000e+00
4.746835e-01 3.333333e-02 0.000000e+00
5.063291e-01 3.333333e-02 0.000000e+00
5.379747e-01 3.333333e-02 0.000000e+00
5.696203e-01 3.333333e-02 0.000000e+00
6.012658e-01 3.333333e-02 0.000000e+00
6.329114e-01 3.333333e-02 0.000000e+00
6.645570e-01 3.333333e-02 0.000000e+00
6.962025e-01 3.333333e-02 0.000000e+00
7.278481e-01 3.333333e-02 0.000000e+00
7.594937e-01 3.333333e-02 0.000000e+00
7.911392e-01 3.333333e-02 0.000000e+00
8.227848e-01 3.333333e-02 0.000000e+00
8.544304e-01 3.333333e-02 0.000000e+00
8.860759e-01 3.333333e-02 0.000000e+00
9.177215e-01 3.333333e-02 0.000000e+00
9.493671e-01 3.333333e-02 0.000000e+00
9.810127e-01 3.333333e-02 0.000000e+00
1.012658e+00 3.333333e-02 0.000000e+00
1.044304e+00 3.333333e-02 0.000000e+00
1.075949e+00 3.333333e-02 0.000000e+00
1.107595e+00 3.333333e-02 0.000000e+00
1.139241e+00 3.333333e-02 0.000000e+00
1.170886e+00 3.333333e-02 0.000000e+00
1.202532e+00 3.333333e-02 0.000000e+00
1.234177e+00 3.333333e-02 0.000000e+00
1.265823e+00 3.333333e-02 0.000000e+00
1.297468e+00 3.333333e-02 0.000000e+00
1.329114e+00 3.333333e-02 0.000000e+00
1.360759e+00 3.333333e-02 0.000000e+00
1.392405e+00 3.333333e-02 0.000000e+00
1.424051e+00 3.333333e-02 0.000000e+00
1.455696e+00 3.333333e-02 0.000000e+00
1.487342e+00 3.333333e-02 0.000000e+00
1.518987e+00 3.333333e-02 0.000000e+00
1.550633e+00 3.333333e-02 0.000000e+00
1.582278e+00 3.333333e-02 0.000000e+00
1.613924e+00 3.333333e-02 0.000000e+00
1.645570e+00 3.333333e-02 0.000000e+00
1.677215e+00 3.333333e-02 0.000000e+00
1.708861e+00 3.333333e-02 0.000000e+00
1.740506e+00 3.333333e-02 0.000000e+00
1.772152e+00 3.333333e-02 0.000000e+00
1.803797e+00 3.333333e-02 0.000000e+00
1.835443e+00 3.333333e-02 0.000000e+00
1.867089e+00 3.333333e-02 0.000000e+00
1.898734e+00 3.333333e-02 0.000000e+00
1.930380e+00 3.333333e-02 0.000000e+00
1.962025e+00 3.333333e-02 0.000000e+00
1.993671e+00 3.333333e-02 0.000000e+00
2.025316e+00 3.333333e-02 0.000000e+00
2.056962e+00 3.333333e-02 0.000000e+00
2.088608e+00 3.333333e-02 0.000000e+00
2.120253e+00 3.333333e-02 0.000000e+00
2.151899e+00 3.333333e-02 0.000000e+00
2.183544e+00 3.333333e-02 0.000000e+00
2.215190e+00 3.333333e-02 0.000000e+00
2.246835e+00 3.333333e-02 0.000000e+00
2.278481e+00 3.333333e-02 0.000000e+00
2.310127e+00 3.333333e-02 0.000000e+00
2.341772e+00 3.333333e-02 0.000000e+00
2.373418e+00 3.333333e-02 0.000000e+00
2.405063e+00 3.333333e-02 0.000000e+00
2.436709e+00 3.333333e-02 0.000000e+00
2.468354e+00 3.333333e-02 0.000000e+00
2.500000e+00 3.333333e-02 0.000000e+00
2.531646e+00 3.333333e-02 0.000000e+00
2.563291e+00 3.333333e-02 0.000000e+00
2.594937e+00 3.333333e-02 0.000000e+00
2.626582e+00 3.333333e-02 0.000000e+00
2.658228e+00 3.333333e-02 0.000000e+00
2.689873e+00 3.333333e-02 0.000000e+00
2.721519e+00 3.333333e-02 0.000000e+00
2.753165e+00 3.333333e-02 0.000000e+00
2.784810e+00 3.333333e-02 0.000000e+00
2.816456e+00 3.333333e-02 0.000000e+00
2.848101e+00 3.333333e-02 0.000000e+00
2.879747e+00 3.333333e-02 0.000000e+00
[...]
<PointData>
<DataArray Name="Velocity" type="Float64" format="ascii" NumberOfComponents="3">
0.000000e+00 0.000000e+00 0
0.000000e+00 0.000000e+00 0
0.000000e+00 0.000000e+00 0
0.000000e+00 0.000000e+00 0
0.000000e+00 0.000000e+00 0
0.000000e+00 0.000000e+00 0
0.000000e+00 0.000000e+00 0
0.000000e+00 0.000000e+00 0
0.000000e+00 0.000000e+00 0
0.000000e+00 0.000000e+00 0
0.000000e+00 0.000000e+00 0
0.000000e+00 0.000000e+00 0
0.000000e+00 0.000000e+00 0
0.000000e+00 0.000000e+00 0
0.000000e+00 0.000000e+00 0
0.000000e+00 0.000000e+00 0
0.000000e+00 0.000000e+00 0
0.000000e+00 0.000000e+00 0
0.000000e+00 0.000000e+00 0
2.175677e-18 0.000000e+00 0
0.000000e+00 0.000000e+00 0
0.000000e+00 0.000000e+00 0
0.000000e+00 0.000000e+00 0
-4.615823e-18 0.000000e+00 0
0.000000e+00 0.000000e+00 0
0.000000e+00 0.000000e+00 0
0.000000e+00 0.000000e+00 0
-2.860503e-18 0.000000e+00 0
0.000000e+00 0.000000e+00 0
0.000000e+00 0.000000e+00 0
0.000000e+00 0.000000e+00 0
-3.075383e-19 0.000000e+00 0
0.000000e+00 0.000000e+00 0
0.000000e+00 0.000000e+00 0
0.000000e+00 0.000000e+00 0
0.000000e+00 0.000000e+00 0
0.000000e+00 0.000000e+00 0
0.000000e+00 0.000000e+00 0
2.770297e-18 0.000000e+00 0
0.000000e+00 0.000000e+00 0
0.000000e+00 0.000000e+00 0
0.000000e+00 0.000000e+00 0
0.000000e+00 0.000000e+00 0
0.000000e+00 0.000000e+00 0
0.000000e+00 0.000000e+00 0
0.000000e+00 0.000000e+00 0
-1.136734e-17 0.000000e+00 0
0.000000e+00 0.000000e+00 0
0.000000e+00 0.000000e+00 0
0.000000e+00 0.000000e+00 0
0.000000e+00 0.000000e+00 0
0.000000e+00 0.000000e+00 0
0.000000e+00 0.000000e+00 0
0.000000e+00 0.000000e+00 0
-1.396714e-18 0.000000e+00 0
0.000000e+00 0.000000e+00 0
0.000000e+00 0.000000e+00 0
0.000000e+00 0.000000e+00 0
0.000000e+00 0.000000e+00 0
0.000000e+00 0.000000e+00 0
0.000000e+00 0.000000e+00 0
0.000000e+00 0.000000e+00 0
1.427369e-19 0.000000e+00 0
0.000000e+00 0.000000e+00 0
0.000000e+00 0.000000e+00 0
0.000000e+00 0.000000e+00 0
0.000000e+00 0.000000e+00 0
0.000000e+00 0.000000e+00 0
0.000000e+00 0.000000e+00 0
0.000000e+00 0.000000e+00 0
0.000000e+00 0.000000e+00 0
0.000000e+00 0.000000e+00 0
0.000000e+00 0.000000e+00 0
0.000000e+00 0.000000e+00 0
0.000000e+00 0.000000e+00 0
0.000000e+00 0.000000e+00 0
0.000000e+00 0.000000e+00 0
0.000000e+00 0.000000e+00 0
0.000000e+00 0.000000e+00 0
0.000000e+00 0.000000e+00 0
0.000000e+00 0.000000e+00 0
0.000000e+00 0.000000e+00 0
0.000000e+00 0.000000e+00 0
0.000000e+00 0.000000e+00 0
0.000000e+00 0.000000e+00 0
0.000000e+00 0.000000e+00 0
0.000000e+00 0.000000e+00 0
0.000000e+00 0.000000e+00 0
0.000000e+00 0.000000e+00 0
0.000000e+00 0.000000e+00 0
0.000000e+00 0.000000e+00 0
0.000000e+00 0.000000e+00 0
0.000000e+00 0.000000e+00 0
0.000000e+00 0.000000e+00 0
0.000000e+00 0.000000e+00 0
0.000000e+00 0.000000e+00 0
0.000000e+00 0.000000e+00 0
0.000000e+00 0.000000e+00 0
0.000000e+00 0.000000e+00 0
0.000000e+00 0.000000e+00 0
0.000000e+00 0.000000e+00 0
0.000000e+00 0.000000e+00 0
0.000000e+00 0.000000e+00 0
0.000000e+00 0.000000e+00 0
0.000000e+00 0.000000e+00 0
0.000000e+00 0.000000e+00 0
0.000000e+00 0.000000e+00 0
0.000000e+00 0.000000e+00 0
0.000000e+00 0.000000e+00 0
0.000000e+00 0.000000e+00 0
0.000000e+00 0.000000e+00 0
0.000000e+00 0.000000e+00 0
0.000000e+00 0.000000e+00 0
0.000000e+00 0.000000e+00 0
0.000000e+00 0.000000e+00 0
0.000000e+00 0.000000e+00 0
0.000000e+00 0.000000e+00 0
0.000000e+00 0.000000e+00 0
0.000000e+00 0.000000e+00 0
0.000000e+00 0.000000e+00 0
0.000000e+00 0.000000e+00 0
0.000000e+00 0.000000e+00 0
0.000000e+00 0.000000e+00 0
0.000000e+00 0.000000e+00 0
0.000000e+00 0.000000e+00 0
0.000000e+00 0.000000e+00 0
0.000000e+00 0.000000e+00 0
0.000000e+00 0.000000e+00 0
0.000000e+00 0.000000e+00 0
0.000000e+00 0.000000e+00 0
0.000000e+00 0.000000e+00 0
0.000000e+00 0.000000e+00 0
0.000000e+00 0.000000e+00 0
0.000000e+00 0.000000e+00 0
0.000000e+00 0.000000e+00 0
0.000000e+00 0.000000e+00 0
0.000000e+00 0.000000e+00 0
0.000000e+00 0.000000e+00 0
0.000000e+00 0.000000e+00 0
0.000000e+00 0.000000e+00 0
0.000000e+00 0.000000e+00 0
0.000000e+00 0.000000e+00 0
0.000000e+00 0.000000e+00 0
0.000000e+00 0.000000e+00 0
0.000000e+00 0.000000e+00 0
0.000000e+00 0.000000e+00 0
0.000000e+00 0.000000e+00 0
0.000000e+00 0.000000e+00 0
0.000000e+00 0.000000e+00 0
0.000000e+00 0.000000e+00 0
0.000000e+00 0.000000e+00 0
0.000000e+00 0.000000e+00 0
0.000000e+00 0.000000e+00 0
0.000000e+00 0.000000e+00 0
0.000000e+00 0.000000e+00 0
0.000000e+00 0.000000e+00 0
0.000000e+00 0.000000e+00 0
0.000000e+00 0.000000e+00 0
0.000000e+00 0.000000e+00 0
5.456787e-01 -5.722312e-05 0
5.456787e-01 -5.148110e-05 0
5.457192e-01 -2.162703e-05 0
5.457149e-01 4.176105e-05 0
5.456354e-01 1.372906e-04 0
5.454482e-01 2.685549e-04 0
5.451176e-01 4.394827e-04 0
5.446038e-01 6.548627e-04 0
5.438617e-01 9.205271e-04 0
5.428401e-01 1.243472e-03 0
5.414804e-01 1.631980e-03 0
5.397151e-01 2.095774e-03 0
5.374667e-01 2.646198e-03 0
5.346457e-01 3.296470e-03 0
5.311488e-01 4.061983e-03 0
5.268563e-01 4.960691e-03 0
5.216300e-01 6.013575e-03 0
5.153091e-01 7.245173e-03 0
5.077067e-01 8.684140e-03 0
4.986054e-01 1.036380e-02 0
4.877516e-01 1.232252e-02 0
4.748503e-01 1.460374e-02 0
4.595589e-01 1.725518e-02 0
4.414820e-01 2.032652e-02 0
4.201683e-01 2.386423e-02 0
3.951133e-01 2.790135e-02 0
3.657726e-01 3.243854e-02 0
3.315967e-01 3.741154e-02 0
2.921055e-01 4.263871e-02 0
2.470301e-01 4.777517e-02 0
1.965560e-01 5.302835e-02 0
1.418020e-01 5.664693e-02 0
8.653177e-02 4.915492e-02 0
3.821616e-02 2.522681e-02 0
2.077108e-03 5.553766e-03 0
-2.379942e-02 5.119941e-03 0
-4.205729e-02 1.109797e-02 0
-5.519228e-02 1.426996e-02 0
-6.647022e-02 1.567567e-02 0
-7.820411e-02 1.677239e-02 0
-9.105591e-02 1.776969e-02 0
-1.048534e-01 1.849231e-02 0
-1.191950e-01 1.879538e-02 0
-1.336312e-01 1.855477e-02 0
-1.476391e-01 1.756797e-02 0
-1.604393e-01 1.546679e-02 0
-1.706288e-01 1.173861e-02 0
-1.759488e-01 6.203932e-03 0
-1.745480e-01 -6.886100e-04 0
-1.675016e-01 -7.481021e-03 0
-1.553424e-01 -1.343738e-02 0
-1.381821e-01 -1.907591e-02 0
-1.159493e-01 -2.455560e-02 0
-8.877057e-02 -3.002053e-02 0
-5.772518e-02 -3.480200e-02 0
-2.344234e-02 -3.864879e-02 0
1.347233e-02 -4.201195e-02 0
5.233327e-02 -4.478805e-02 0
9.237892e-02 -4.574877e-02 0
1.326841e-01 -4.466216e-02 0
1.725257e-01 -4.313265e-02 0
2.114614e-01 -4.166295e-02 0
2.491850e-01 -4.009037e-02 0
2.854721e-01 -3.836628e-02 0
3.201652e-01 -3.651603e-02 0
3.531653e-01 -3.458683e-02 0
3.844240e-01 -3.262588e-02 0
4.139335e-01 -3.067312e-02 0
4.417182e-01 -2.875981e-02 0
4.678264e-01 -2.690895e-02 0
4.923230e-01 -2.513645e-02 0
5.152845e-01 -2.345241e-02 0
5.367938e-01 -2.186225e-02 0
5.569367e-01 -2.036772e-02 0
5.757995e-01 -1.896766e-02 0
5.934661e-01 -1.765869e-02 0
6.100170e-01 -1.643561e-02 0
6.255276e-01 -1.529181e-02 0
6.400672e-01 -1.421946e-02 0
6.536982e-01 -1.320975e-02 0
6.664752e-01 -1.225295e-02 0
6.784445e-01 -1.133852e-02 0
6.896433e-01 -1.045518e-02 0
7.000996e-01 -9.591019e-03 0
7.098313e-01 -8.733581e-03 0
7.188463e-01 -7.870109e-03 0
7.271423e-01 -6.987874e-03 0
7.347067e-01 -6.074794e-03 0
7.415176e-01 -5.120539e-03 0
7.475447e-01 -4.118630e-03 0
7.527513e-01 -3.070649e-03 0
7.570972e-01 -1.995920e-03 0
7.605409e-01 -9.523525e-04 0
7.630343e-01 1.241789e-06 0
7.645207e-01 9.274089e-04 0
7.649723e-01 1.940419e-03 0
7.643554e-01 3.062996e-03 0
7.625882e-01 4.276362e-03 0
7.595936e-01 5.571683e-03 0
7.552949e-01 6.945020e-03 0
7.496173e-01 8.392467e-03 0
7.424897e-01 9.908247e-03 0
7.338466e-01 1.148413e-02 0
7.236312e-01 1.310919e-02 0
7.117975e-01 1.476975e-02 0
6.983129e-01 1.644927e-02 0
6.831608e-01 1.812833e-02 0
6.663429e-01 1.978455e-02 0
6.478824e-01 2.139246e-02 0
6.278258e-01 2.292331e-02 0
6.062462e-01 2.434474e-02 0
5.832457e-01 2.562072e-02 0
5.589578e-01 2.671310e-02 0
5.335478e-01 2.758774e-02 0
5.072130e-01 2.822420e-02 0
4.801846e-01 2.861237e-02 0
4.527455e-01 2.870049e-02 0
4.252763e-01 2.828333e-02 0
3.983238e-01 2.692005e-02 0
3.726302e-01 2.406441e-02 0
3.490329e-01 1.947467e-02 0
3.282126e-01 1.362835e-02 0
3.104365e-01 7.684382e-03 0
2.955190e-01 2.896282e-03 0
2.830900e-01 -2.517390e-05 0
2.730437e-01 -1.344683e-03 0
2.657022e-01 -2.018163e-03 0
2.615040e-01 -2.723883e-03 0
2.605075e-01 -3.566175e-03 0
2.619360e-01 -4.333715e-03 0
2.647167e-01 -4.805415e-03 0
2.681842e-01 -5.028982e-03 0
2.720993e-01 -5.182740e-03 0
2.764690e-01 -5.322981e-03 0
2.812105e-01 -5.402750e-03 0
2.861537e-01 -5.411684e-03 0
2.911873e-01 -5.389655e-03 0
2.962825e-01 -5.371440e-03 0
3.014356e-01 -5.372844e-03 0
3.066601e-01 -5.405374e-03 0
3.119938e-01 -5.477921e-03 0
3.174901e-01 -5.592722e-03 0
3.232084e-01 -5.744726e-03 0
3.292039e-01 -5.922198e-03 0
3.355193e-01 -6.107915e-03 0
3.421777e-01 -6.280952e-03 0
3.491772e-01 -6.418902e-03 0
3.564895e-01 -6.500290e-03 0
3.640597e-01 -6.506923e-03 0
3.718103e-01 -6.425966e-03 0
3.796454e-01 -6.251604e-03 0
3.874581e-01 -5.986289e-03 0
3.951383e-01 -5.641783e-03 0
4.025813e-01 -5.240488e-03 0
4.096971e-01 -4.818025e-03 0
4.164219e-01 -4.430074e-03 0
4.227335e-01 -4.131842e-03 0
4.286605e-01 -4.893626e-03 0
4.286605e-01 -5.776824e-03 0
7.383562e-01 -1.179325e-04 0
7.383562e-01 -1.016026e-04 0
7.384025e-01 -3.808755e-05 0
7.384112e-01 8.830104e-05 0
7.383559e-01 2.809408e-04 0
7.382090e-01 5.454084e-04 0
7.379401e-01 8.894460e-04 0
7.375149e-01 1.322870e-03 0
7.368948e-01 1.857687e-03 0
7.360353e-01 2.508282e-03 0
7.348856e-01 3.291657e-03 0
7.333867e-01 4.227740e-03 0
7.314708e-01 5.339795e-03 0
7.290595e-01 6.654937e-03 0
7.260618e-01 8.204808e-03 0
7.223723e-01 1.002641e-02 0
7.178684e-01 1.216311e-02 0
7.124070e-01 1.466588e-02 0
7.058209e-01 1.759458e-02 0
6.979136e-01 2.101937e-02 0
6.884538e-01 2.502196e-02 0
6.771678e-01 2.969628e-02 0
6.637318e-01 3.514803e-02 0
6.477615e-01 4.149151e-02 0
6.288015e-01 4.884167e-02 0
6.063154e-01 5.729678e-02 0
5.796778e-01 6.690413e-02 0
5.481781e-01 7.759602e-02 0
5.110535e-01 8.907682e-02 0
4.675951e-01 1.006455e-01 0
4.174594e-01 1.108403e-01 0
3.621322e-01 1.158921e-01 0
3.040670e-01 1.091104e-01 0
2.430515e-01 8.895889e-02 0
1.823860e-01 6.532304e-02 0
1.346858e-01 4.648820e-02 0
1.045853e-01 3.306711e-02 0
8.677035e-02 2.571491e-02 0
7.579046e-02 2.423909e-02 0
6.821820e-02 2.589687e-02 0
6.214056e-02 2.807049e-02 0
5.657706e-02 2.963978e-02 0
5.119748e-02 3.031262e-02 0
4.609349e-02 2.996104e-02 0
4.155590e-02 2.823780e-02 0
3.795569e-02 2.421573e-02 0
3.597028e-02 1.633655e-02 0
3.750982e-02 4.128187e-03 0
4.369696e-02 -8.897834e-03 0
5.375552e-02 -2.023004e-02 0
6.789185e-02 -3.088327e-02 0
8.613423e-02 -4.149411e-02 0
1.083908e-01 -5.204691e-02 0
1.343256e-01 -6.132954e-02 0
1.630860e-01 -6.881250e-02 0
1.944368e-01 -7.499481e-02 0
2.275368e-01 -7.981708e-02 0
2.615960e-01 -8.311505e-02 0
2.958351e-01 -8.463631e-02 0
3.306833e-01 -8.442135e-02 0
3.657844e-01 -8.297888e-02 0
4.004018e-01 -8.074793e-02 0
4.340773e-01 -7.795801e-02 0
4.665409e-01 -7.476587e-02 0
4.976320e-01 -7.130364e-02 0
5.272612e-01 -6.768605e-02 0
5.553888e-01 -6.400921e-02 0
5.820122e-01 -6.034999e-02 0
6.071563e-01 -5.676721e-02 0
6.308654e-01 -5.330379e-02 0
6.531979e-01 -4.998933e-02 0
6.742211e-01 -4.684259e-02 0
6.940077e-01 -4.387369e-02 0
7.126325e-01 -4.108598e-02 0
7.301709e-01 -3.847756e-02 0
7.466965e-01 -3.604245e-02 0
7.622803e-01 -3.377148e-02 0
7.769891e-01 -3.165293e-02 0
7.908854e-01 -2.967306e-02 0
8.040261e-01 -2.781640e-02 0
8.164622e-01 -2.606600e-02 0
8.282383e-01 -2.440364e-02 0
8.393922e-01 -2.280994e-02 0
8.499547e-01 -2.126456e-02 0
8.599489e-01 -1.974643e-02 0
8.693902e-01 -1.823408e-02 0
8.782862e-01 -1.670607e-02 0
8.866366e-01 -1.514180e-02 0
8.944329e-01 -1.352248e-02 0
9.016583e-01 -1.183263e-02 0
9.082863e-01 -1.006176e-02 0
9.142772e-01 -8.204856e-03 0
9.195673e-01 -6.253513e-03 0
9.240435e-01 -4.191735e-03 0
9.275682e-01 -2.041078e-03 0
9.300735e-01 1.744403e-04 0
9.315426e-01 2.511574e-03 0
9.319402e-01 5.016121e-03 0
9.312041e-01 7.682698e-03 0
9.292640e-01 1.050871e-02 0
9.260483e-01 1.348858e-02 0
9.214867e-01 1.661224e-02 0
9.155131e-01 1.986465e-02 0
9.080671e-01 2.322548e-02 0
8.990968e-01 2.666909e-02 0
8.885607e-01 3.016454e-02 0
8.764295e-01 3.367555e-02 0
8.626882e-01 3.716042e-02 0
8.473383e-01 4.057196e-02 0
8.303994e-01 4.385737e-02 0
8.119112e-01 4.695820e-02 0
7.919353e-01 4.981099e-02 0
7.705565e-01 5.234903e-02 0
7.478858e-01 5.450510e-02 0
7.240685e-01 5.620982e-02 0
6.993010e-01 5.737302e-02 0
6.738501e-01 5.783732e-02 0
6.480409e-01 5.732477e-02 0
6.221761e-01 5.545453e-02 0
5.964017e-01 5.192043e-02 0
5.706318e-01 4.678721e-02 0
5.446658e-01 4.065543e-02 0
5.184800e-01 3.443779e-02 0
4.924805e-01 2.880554e-02 0
4.675206e-01 2.367459e-02 0
4.447068e-01 1.831577e-02 0
4.248181e-01 1.215583e-02 0
4.079734e-01 5.472365e-03 0
3.938514e-01 -4.544988e-04 0
3.821656e-01 -4.433118e-03 0
3.730869e-01 -6.580879e-03 0
3.670448e-01 -7.775760e-03 0
3.641981e-01 -8.726112e-03 0
3.639066e-01 -9.596583e-03 0
3.652538e-01 -1.020075e-02 0
3.675585e-01 -1.050849e-02 0
3.704882e-01 -1.066850e-02 0
3.739368e-01 -1.079441e-02 0
3.777979e-01 -1.093064e-02 0
3.819927e-01 -1.112080e-02 0
3.865134e-01 -1.140720e-02 0
3.913940e-01 -1.181234e-02 0
3.966925e-01 -1.233812e-02 0
4.024774e-01 -1.296720e-02 0
4.088125e-01 -1.366541e-02 0
4.157450e-01 -1.438599e-02 0
4.232964e-01 -1.507480e-02 0
4.314571e-01 -1.567602e-02 0
4.401843e-01 -1.613773e-02 0
4.494034e-01 -1.641667e-02 0
4.590119e-01 -1.648220e-02 0
4.688847e-01 -1.631912e-02 0
4.788811e-01 -1.592962e-02 0
4.888516e-01 -1.533513e-02 0
4.986445e-01 -1.457874e-02 0
5.081107e-01 -1.373164e-02 0
5.171035e-01 -1.289123e-02 0
5.254965e-01 -1.260317e-02 0
5.254965e-01 -1.272023e-02 0
8.077724e-01 -1.901774e-04 0
8.077724e-01 -1.667586e-04 0
8.078386e-01 -7.955440e-05 0
8.078788e-01 9.084894e-05 0
8.078762e-01 3.502343e-04 0
8.078118e-01 7.065811e-04 0
8.076647e-01 1.170607e-03 0
8.074109e-01 1.755885e-03 0
8.070232e-01 2.479014e-03 0
8.064701e-01 3.359865e-03 0
8.057156e-01 4.421909e-03 0
8.047179e-01 5.692645e-03 0
8.034286e-01 7.204178e-03 0
8.017920e-01 8.993969e-03 0
7.997438e-01 1.110582e-02 0
7.972095e-01 1.359110e-02 0
7.941027e-01 1.651036e-02 0
7.903231e-01 1.993519e-02 0
7.857532e-01 2.395051e-02 0
7.802545e-01 2.865716e-02 0
7.736628e-01 3.417472e-02 0
7.657807e-01 4.064416e-02 0
7.563688e-01 4.822988e-02 0
7.451319e-01 5.711974e-02 0
7.317011e-01 6.752071e-02 0
7.156070e-01 7.964501e-02 0
6.962410e-01 9.367648e-02 0
6.728016e-01 1.096958e-01 0
6.442249e-01 1.275195e-01 0
6.091276e-01 1.463610e-01 0
5.658770e-01 1.641160e-01 0
5.130484e-01 1.760869e-01 0
4.501204e-01 1.745866e-01 0
3.812686e-01 1.533975e-01 0
3.259244e-01 1.196989e-01 0
2.869934e-01 8.706992e-02 0
2.608500e-01 6.156885e-02 0
2.434890e-01 4.460054e-02 0
2.330513e-01 3.521723e-02 0
2.282374e-01 3.115027e-02 0
2.273666e-01 3.003167e-02 0
2.288867e-01 3.001899e-02 0
2.319017e-01 2.983804e-02 0
2.360913e-01 2.871053e-02 0
2.413862e-01 2.613975e-02 0
2.476266e-01 2.135027e-02 0
2.553469e-01 1.220822e-02 0
2.647719e-01 -1.934884e-03 0
2.748473e-01 -1.780079e-02 0
2.871511e-01 -3.296634e-02 0
3.024918e-01 -4.754299e-02 0
3.210077e-01 -6.173486e-02 0
3.423306e-01 -7.531723e-02 0
3.659195e-01 -8.763280e-02 0
3.918492e-01 -9.811920e-02 0
4.195436e-01 -1.065371e-01 0
4.483165e-01 -1.127530e-01 0
4.775636e-01 -1.167290e-01 0
5.068264e-01 -1.185208e-01 0
5.359325e-01 -1.183421e-01 0
5.646792e-01 -1.165695e-01 0
5.927765e-01 -1.135982e-01 0
6.199815e-01 -1.097569e-01 0
6.461283e-01 -1.053106e-01 0
6.711172e-01 -1.004748e-01 0
6.948974e-01 -9.542397e-02 0
7.174539e-01 -9.029700e-02 0
7.387973e-01 -8.520157e-02 0
7.589561e-01 -8.021852e-02 0
7.779718e-01 -7.540618e-02 0
7.958943e-01 -7.080449e-02 0
8.127793e-01 -6.643864e-02 0
8.286855e-01 -6.232219e-02 0
8.436731e-01 -5.845963e-02 0
8.578021e-01 -5.484842e-02 0
8.711318e-01 -5.148058e-02 0
8.837192e-01 -4.834384e-02 0
8.956189e-01 -4.542257e-02 0
9.068818e-01 -4.269837e-02 0
9.175554e-01 -4.015054e-02 0
9.276825e-01 -3.775639e-02 0
9.373013e-01 -3.549148e-02 0
9.464447e-01 -3.332980e-02 0
9.551399e-01 -3.124398e-02 0
9.634080e-01 -2.920557e-02 0
9.712635e-01 -2.718538e-02 0
9.787140e-01 -2.515402e-02 0
9.857597e-01 -2.308253e-02 0
9.923930e-01 -2.094327e-02 0
9.985977e-01 -1.871078e-02 0
1.004348e+00 -1.636249e-02 0
1.009605e+00 -1.387849e-02 0
1.014320e+00 -1.123940e-02 0
1.018433e+00 -8.426183e-03 0
1.021885e+00 -5.423972e-03 0
1.024575e+00 -2.245793e-03 0
1.026408e+00 1.096865e-03 0
1.027353e+00 4.633047e-03 0
1.027357e+00 8.390781e-03 0
1.026363e+00 1.237603e-02 0
1.024308e+00 1.658469e-02 0
1.021132e+00 2.100549e-02 0
1.016777e+00 2.561969e-02 0
1.011192e+00 3.040119e-02 0
1.004333e+00 3.531669e-02 0
9.961614e-01 4.032578e-02 0
9.866518e-01 4.538093e-02 0
9.757872e-01 5.042750e-02 0
9.635626e-01 5.540360e-02 0
9.499853e-01 6.024008e-02 0
9.350761e-01 6.486047e-02 0
9.188698e-01 6.918122e-02 0
9.014174e-01 7.311211e-02 0
8.827890e-01 7.655540e-02 0
8.630795e-01 7.940047e-02 0
8.424148e-01 8.150926e-02 0
8.209459e-01 8.269474e-02 0
7.988150e-01 8.271363e-02 0
7.760893e-01 8.131363e-02 0
7.527054e-01 7.835797e-02 0
7.285039e-01 7.397007e-02 0
7.033960e-01 6.856177e-02 0
6.775627e-01 6.265314e-02 0
6.515059e-01 5.657381e-02 0
6.258501e-01 5.029675e-02 0
6.009507e-01 4.363554e-02 0
5.767027e-01 3.667454e-02 0
5.527718e-01 2.989461e-02 0
5.290879e-01 2.361827e-02 0
5.064202e-01 1.753846e-02 0
4.858833e-01 1.112208e-02 0
4.680962e-01 4.334174e-03 0
4.530489e-01 -1.876942e-03 0
4.405141e-01 -6.434820e-03 0
4.305524e-01 -9.249237e-03 0
4.234479e-01 -1.092510e-02 0
4.191997e-01 -1.210789e-02 0
4.172204e-01 -1.307081e-02 0
4.168299e-01 -1.385828e-02 0
4.175600e-01 -1.458552e-02 0
4.192089e-01 -1.538041e-02 0
4.216618e-01 -1.631453e-02 0
4.248683e-01 -1.741909e-02 0
4.288245e-01 -1.868841e-02 0
4.335477e-01 -2.008302e-02 0
4.390572e-01 -2.153729e-02 0
4.453592e-01 -2.296890e-02 0
4.524367e-01 -2.428874e-02 0
4.602449e-01 -2.541030e-02 0
4.687086e-01 -2.625768e-02 0
4.777251e-01 -2.677189e-02 0
4.871671e-01 -2.691515e-02 0
4.968885e-01 -2.667349e-02 0
5.067289e-01 -2.605787e-02 0
5.165186e-01 -2.510433e-02 0
5.260795e-01 -2.387362e-02 0
5.352183e-01 -2.244486e-02 0
5.437235e-01 -2.100863e-02 0
5.437235e-01 -2.032565e-02 0
8.413981e-01 -2.802225e-04 0
8.413981e-01 -2.524792e-04 0
8.414876e-01 -1.501506e-04 0
8.415601e-01 4.872589e-05 0
8.416048e-01 3.514725e-04 0
8.416089e-01 7.681802e-04 0
8.415579e-01 1.311781e-03 0
8.414352e-01 1.998612e-03 0
8.412213e-01 2.848603e-03 0
8.408940e-01 3.885532e-03 0
8.404273e-01 5.137379e-03 0
8.397914e-01 6.636791e-03 0
8.389522e-01 8.421715e-03 0
8.378705e-01 1.053625e-02 0
8.365021e-01 1.303175e-02 0
8.347969e-01 1.596833e-02 0
8.326983e-01 1.941673e-02 0
8.301425e-01 2.346073e-02 0
8.270568e-01 2.820015e-02 0
8.233583e-01 3.375455e-02 0
8.189507e-01 4.026768e-02 0
8.137201e-01 4.791268e-02 0
8.075281e-01 5.689818e-02 0
8.001998e-01 6.747476e-02 0
7.915047e-01 7.994118e-02 0
7.811230e-01 9.464805e-02 0
7.685852e-01 1.119925e-01 0
7.531628e-01 1.323863e-01 0
7.336687e-01 1.561467e-01 0
7.080956e-01 1.831720e-01 0
6.730169e-01 2.120437e-01 0
6.228420e-01 2.378224e-01 0
5.504640e-01 2.479185e-01 0
4.579732e-01 2.197787e-01 0
4.103007e-01 1.646262e-01 0
3.881621e-01 1.150332e-01 0
3.775310e-01 7.889175e-02 0
3.723737e-01 5.499612e-02 0
3.708383e-01 4.030410e-02 0
3.724650e-01 3.188478e-02 0
3.768332e-01 2.738658e-02 0
3.831925e-01 2.486275e-02 0
3.912128e-01 2.272374e-02 0
4.007641e-01 1.997071e-02 0
4.120495e-01 1.608719e-02 0
4.259881e-01 9.510388e-03 0
4.428932e-01 -1.723146e-03 0
4.611766e-01 -1.641225e-02 0
4.797890e-01 -3.247073e-02 0
4.995339e-01 -4.934894e-02 0
5.208971e-01 -6.654557e-02 0
5.438115e-01 -8.345767e-02 0
5.678337e-01 -9.935405e-02 0
5.924409e-01 -1.134893e-01 0
6.172671e-01 -1.252966e-01 0
6.419579e-01 -1.344737e-01 0
6.662102e-01 -1.409315e-01 0
6.898067e-01 -1.447456e-01 0
7.126277e-01 -1.461183e-01 0
7.346501e-01 -1.453596e-01 0
7.558665e-01 -1.428545e-01 0
7.762468e-01 -1.389997e-01 0
7.957592e-01 -1.341553e-01 0
8.143845e-01 -1.286288e-01 0