<?xml version="1.0"?>
<VTKFile type="StructuredGrid">
<StructuredGrid WholeExtent="0 158 0 30 0 0 ">
<Piece Extent="0 158 0 30 0 0 ">
<Points>
<DataArray type="Float64" format="ascii" NumberOfComponents="3">
0.000000e+00 0.000000e+00 0.000000e+00
3.164557e-02 0.000000e+00 0.000000e+00
6.329114e-02 0.000000e+00 0.000000e+00
9.493671e-02 0.000000e+00 0.000000e+00
1.265823e-01 0.000000e+00 0.000000e+00
1.582278e-01 0.000000e+00 0.000000e+00
1.898734e-01 0.000000e+00 0.000000e+00
2.215190e-01 0.000000e+00 0.000000e+00
2.531646e-01 0.000000e+00 0.000000e+00
2.848101e-01 0.000000e+00 0.000000e+00
3.164557e-01 0.000000e+00 0.000000e+00
3.481013e-01 0.000000e+00 0.000000e+00
3.797468e-01 0.000000e+00 0.000000e+00
4.113924e-01 0.000000e+00 0.000000e+00
4.430380e-01 0.000000e+00 0.000000e+00
4.746835e-01 0.000000e+00 0.000000e+00
5.063291e-01 0.000000e+00 0.000000e+00
5.379747e-01 0.000000e+00 0.000000e+00
5.696203e-01 0.000000e+00 0.000000e+00
6.012658e-01 0.000000e+00 0.000000e+00
6.329114e-01 0.000000e+00 0.000000e+00
6.645570e-01 0.000000e+00 0.000000e+00
6.962025e-01 0.000000e+00 0.000000e+00
7.278481e-01 0.000000e+00 0.000000e+00
7.594937e-01 0.000000e+00 0.000000e+00
7.911392e-01 0.000000e+00 0.000000e+00
8.227848e-01 0.000000e+00 0.000000e+00
8.544304e-01 0.000000e+00 0.000000e+00
8.860759e-01 0.000000e+00 0.000000e+00
9.177215e-01 0.000000e+00 0.000000e+00
9.493671e-01 0.000000e+00 0.000000e+00
9.810127e-01 0.000000e+00 0.000000e+00
1.012658e+00 0.000000e+00 0.000000e+00
1.044304e+00 0.000000e+00 0.000000e+00
1.075949e+00 0.000000e+00 0.000000e+00
1.107595e+00 0.000000e+00 0.000000e+00
1.139241e+00 0.000000e+00 0.000000e+00
1.170886e+00 0.000000e+00 0.000000e+00
1.202532e+00 0.000000e+00 0.000000e+00
1.234177e+00 0.000000e+00 0.000000e+00
1.265823e+00 0.000000e+00 0.000000e+00
1.297468e+00 0.000000e+00 0.000000e+00
1.329114e+00 0.000000e+00 0.000000e+00
1.360759e+00 0.000000e+00 0.000000e+00
1.392405e+00 0.000000e+00 0.000000e+00
1.424051e+00 0.000000e+00 0.000000e+00
1.455696e+00 0.000000e+00 0.000000e+00
1.487342e+00 0.000000e+00 0.000000e+00
1.518987e+00 0.000000e+00 0.000000e+00
1.550633e+00 0.000000e+00 0.000000e+00
1.582278e+00 0.000000e+00 0.000000e+00
1.613924e+00 0.000000e+00 0.000000e+00
1.645570e+00 0.000000e+00 0.000000e+00
1.677215e+00 0.000000e+00 0.000000e+00
1.708861e+00 0.000000e+00 0.000000e+00
1.740506e+00 0.000000e+00 0.000000e+00
1.772152e+00 0.000000e+00 0.000000e+00
1.803797e+00 0.000000e+00 0.000000e+00
1.835443e+00 0.000000e+00 0.000000e+00
1.867089e+00 0.000000e+00 0.000000e+00
1.898734e+00 0.000000e+00 0.000000e+00
1.930380e+00 0.000000e+00 0.000000e+00
1.962025e+00 0.000000e+00 0.000000e+00
1.993671e+00 0.000000e+00 0.000000e+00
2.025316e+00 0.000000e+00 0.000000e+00
2.056962e+00 0.000000e+00 0.000000e+00
2.088608e+00 0.000000e+00 0.000000e+00
2.120253e+00 0.000000e+00 0.000000e+00
2.151899e+00 0.000000e+00 0.000000e+00
2.183544e+00 0.000000e+00 0.000000e+00
2.215190e+00 0.000000e+00 0.000000e+00
2.246835e+00 0.000000e+00 0.000000e+00
2.278481e+00 0.000000e+00 0.000000e+00
2.310127e+00 0.000000e+00 0.000000e+00
2.341772e+00 0.000000e+00 0.000000e+00
2.373418e+00 0.000000e+00 0.000000e+00
2.405063e+00 0.000000e+00 0.000000e+00
2.436709e+00 0.000000e+00 0.000000e+00
2.468354e+00 0.000000e+00 0.000000e+00
2.500000e+00 0.000000e+00 0.000000e+00
2.531646e+00 0.000000e+00 0.000000e+00
2.563291e+00 0.000000e+00 0.000000e+00
2.594937e+00 0.000000e+00 0.000000e+00
2.626582e+00 0.000000e+00 0.000000e+00
2.658228e+00 0.000000e+00 0.000000e+00
2.689873e+00 0.000000e+00 0.000000e+00
2.721519e+00 0.000000e+00 0.000000e+00
2.753165e+00 0.000000e+00 0.000000e+00
2.784810e+00 0.000000e+00 0.000000e+00
2.816456e+00 0.000000e+00 0.000000e+00
2.848101e+00 0.000000e+00 0.000000e+00
2.879747e+00 0.000000e+00 0.000000e+00
2.911392e+00 0.000000e+00 0.000000e+00
2.943038e+00 0.000000e+00 0.000000e+00
2.974684e+00 0.000000e+00 0.000000e+00
3.006329e+00 0.000000e+00 0.000000e+00
3.037975e+00 0.000000e+00 0.000000e+00
3.069620e+00 0.000000e+00 0.000000e+00
3.101266e+00 0.000000e+00 0.000000e+00
3.132911e+00 0.000000e+00 0.000000e+00
3.164557e+00 0.000000e+00 0.000000e+00
3.196203e+00 0.000000e+00 0.000000e+00
3.227848e+00 0.000000e+00 0.000000e+00
3.259494e+00 0.000000e+00 0.000000e+00
3.291139e+00 0.000000e+00 0.000000e+00
3.322785e+00 0.000000e+00 0.000000e+00
3.354430e+00 0.000000e+00 0.000000e+00
3.386076e+00 0.000000e+00 0.000000e+00
3.417722e+00 0.000000e+00 0.000000e+00
3.449367e+00 0.000000e+00 0.000000e+00
3.481013e+00 0.000000e+00 0.000000e+00
3.512658e+00 0.000000e+00 0.000000e+00
3.544304e+00 0.000000e+00 0.000000e+00
3.575949e+00 0.000000e+00 0.000000e+00
3.607595e+00 0.000000e+00 0.000000e+00
3.639241e+00 0.000000e+00 0.000000e+00
3.670886e+00 0.000000e+00 0.000000e+00
3.702532e+00 0.000000e+00 0.000000e+00
3.734177e+00 0.000000e+00 0.000000e+00
3.765823e+00 0.000000e+00 0.000000e+00
3.797468e+00 0.000000e+00 0.000000e+00
3.829114e+00 0.000000e+00 0.000000e+00
3.860759e+00 0.000000e+00 0.000000e+00
3.892405e+00 0.000000e+00 0.000000e+00
3.924051e+00 0.000000e+00 0.000000e+00
3.955696e+00 0.000000e+00 0.000000e+00
3.987342e+00 0.000000e+00 0.000000e+00
4.018987e+00 0.000000e+00 0.000000e+00
4.050633e+00 0.000000e+00 0.000000e+00
4.082278e+00 0.000000e+00 0.000000e+00
4.113924e+00 0.000000e+00 0.000000e+00
4.145570e+00 0.000000e+00 0.000000e+00
4.177215e+00 0.000000e+00 0.000000e+00
4.208861e+00 0.000000e+00 0.000000e+00
4.240506e+00 0.000000e+00 0.000000e+00
4.272152e+00 0.000000e+00 0.000000e+00
4.303797e+00 0.000000e+00 0.000000e+00
4.335443e+00 0.000000e+00 0.000000e+00
4.367089e+00 0.000000e+00 0.000000e+00
4.398734e+00 0.000000e+00 0.000000e+00
4.430380e+00 0.000000e+00 0.000000e+00
4.462025e+00 0.000000e+00 0.000000e+00
4.493671e+00 0.000000e+00 0.000000e+00
4.525316e+00 0.000000e+00 0.000000e+00
4.556962e+00 0.000000e+00 0.000000e+00
4.588608e+00 0.000000e+00 0.000000e+00
4.620253e+00 0.000000e+00 0.000000e+00
4.651899e+00 0.000000e+00 0.000000e+00
4.683544e+00 0.000000e+00 0.000000e+00
4.715190e+00 0.000000e+00 0.000000e+00
4.746835e+00 0.000000e+00 0.000000e+00
4.778481e+00 0.000000e+00 0.000000e+00
4.810127e+00 0.000000e+00 0.000000e+00
4.841772e+00 0.000000e+00 0.000000e+00
4.873418e+00 0.000000e+00 0.000000e+00
4.905063e+00 0.000000e+00 0.000000e+00
4.936709e+00 0.000000e+00 0.000000e+00
4.968354e+00 0.000000e+00 0.000000e+00
5.000000e+00 0.000000e+00 0.000000e+00
0.000000e+00 3.333333e-02 0.000000e+00
3.164557e-02 3.333333e-02 0.000000e+00
6.329114e-02 3.333333e-02 0.000000e+00
9.493671e-02 3.333333e-02 0.000000e+00
1.265823e-01 3.333333e-02 0.000000e+00
1.582278e-01 3.333333e-02 0.000000e+00
1.898734e-01 3.333333e-02 0.000000e+00
2.215190e-01 3.333333e-02 0.000000e+00
2.531646e-01 3.333333e-02 0.000000e+00
2.848101e-01 3.333333e-02 0.000000e+00
3.164557e-01 3.333333e-02 0.000000e+00
3.481013e-01 3.333333e-02 0.000000e+00
3.797468e-01 3.333333e-02 0.000000e+00
4.113924e-01 3.333333e-02 0.000000e+00
4.430380e-01 3.333333e-02 0.000000e+00
4.746835e-01 3.333333e-02 0.000000e+00
5.063291e-01 3.333333e-02 0.000000e+00
5.379747e-01 3.333333e-02 0.000000e+00
5.696203e-01 3.333333e-02 0.000000e+00
6.012658e-01 3.333333e-02 0.000000e+00
6.329114e-01 3.333333e-02 0.000000e+00
6.645570e-01 3.333333e-02 0.000000e+00
6.962025e-01 3.333333e-02 0.000000e+00
7.278481e-01 3.333333e-02 0.000000e+00
7.594937e-01 3.333333e-02 0.000000e+00
7.911392e-01 3.333333e-02 0.000000e+00
8.227848e-01 3.333333e-02 0.000000e+00
8.544304e-01 3.333333e-02 0.000000e+00
8.860759e-01 3.333333e-02 0.000000e+00
9.177215e-01 3.333333e-02 0.000000e+00
9.493671e-01 3.333333e-02 0.000000e+00
9.810127e-01 3.333333e-02 0.000000e+00
1.012658e+00 3.333333e-02 0.000000e+00
1.044304e+00 3.333333e-02 0.000000e+00
1.075949e+00 3.333333e-02 0.000000e+00
1.107595e+00 3.333333e-02 0.000000e+00
1.139241e+00 3.333333e-02 0.000000e+00
1.170886e+00 3.333333e-02 0.000000e+00
1.202532e+00 3.333333e-02 0.000000e+00
1.234177e+00 3.333333e-02 0.000000e+00
1.265823e+00 3.333333e-02 0.000000e+00
1.297468e+00 3.333333e-02 0.000000e+00
1.329114e+00 3.333333e-02 0.000000e+00
1.360759e+00 3.333333e-02 0.000000e+00
1.392405e+00 3.333333e-02 0.000000e+00
1.424051e+00 3.333333e-02 0.000000e+00
1.455696e+00 3.333333e-02 0.000000e+00
1.487342e+00 3.333333e-02 0.000000e+00
1.518987e+00 3.333333e-02 0.000000e+00
1.550633e+00 3.333333e-02 0.000000e+00
1.582278e+00 3.333333e-02 0.000000e+00
1.613924e+00 3.333333e-02 0.000000e+00
1.645570e+00 3.333333e-02 0.000000e+00
1.677215e+00 3.333333e-02 0.000000e+00
1.708861e+00 3.333333e-02 0.000000e+00
1.740506e+00 3.333333e-02 0.000000e+00
1.772152e+00 3.333333e-02 0.000000e+00
1.803797e+00 3.333333e-02 0.000000e+00
1.835443e+00 3.333333e-02 0.000000e+00
1.867089e+00 3.333333e-02 0.000000e+00
1.898734e+00 3.333333e-02 0.000000e+00
1.930380e+00 3.333333e-02 0.000000e+00
1.962025e+00 3.333333e-02 0.000000e+00
1.993671e+00 3.333333e-02 0.000000e+00
2.025316e+00 3.333333e-02 0.000000e+00
2.056962e+00 3.333333e-02 0.000000e+00
2.088608e+00 3.333333e-02 0.000000e+00
2.120253e+00 3.333333e-02 0.000000e+00
2.151899e+00 3.333333e-02 0.000000e+00
2.183544e+00 3.333333e-02 0.000000e+00
2.215190e+00 3.333333e-02 0.000000e+00
2.246835e+00 3.333333e-02 0.000000e+00
2.278481e+00 3.333333e-02 0.000000e+00
2.310127e+00 3.333333e-02 0.000000e+00
2.341772e+00 3.333333e-02 0.000000e+00
2.373418e+00 3.333333e-02 0.000000e+00
2.405063e+00 3.333333e-02 0.000000e+00
2.436709e+00 3.333333e-02 0.000000e+00
2.468354e+00 3.333333e-02 0.000000e+00
2.500000e+00 3.333333e-02 0.000000e+00
2.531646e+00 3.333333e-02 0.000000e+00
2.563291e+00 3.333333e-02 0.000000e+00
2.594937e+00 3.333333e-02 0.000000e+00
2.626582e+00 3.333333e-02 0.000000e+00
2.658228e+00 3.333333e-02 0.000000e+00
2.689873e+00 3.333333e-02 0.000000e+00
2.721519e+00 3.333333e-02 0.000000e+00
2.753165e+00 3.333333e-02 0.000000e+00
2.784810e+00 3.333333e-02 0.000000e+00
2.816456e+00 3.333333e-02 0.000000e+00
2.848101e+00 3.333333e-02 0.000000e+00
2.879747e+00 3.333333e-02 0.000000e+00
[...]
<PointData>
<DataArray Name="Velocity" type="Float64" format="ascii" NumberOfComponents="3">
0.000000e+00 0.000000e+00 0
0.000000e+00 0.000000e+00 0
0.000000e+00 0.000000e+00 0
0.000000e+00 0.000000e+00 0
0.000000e+00 0.000000e+00 0
0.000000e+00 0.000000e+00 0
0.000000e+00 0.000000e+00 0
0.000000e+00 0.000000e+00 0
0.000000e+00 0.000000e+00 0
0.000000e+00 0.000000e+00 0
0.000000e+00 0.000000e+00 0
0.000000e+00 0.000000e+00 0
0.000000e+00 0.000000e+00 0
0.000000e+00 0.000000e+00 0
0.000000e+00 0.000000e+00 0
0.000000e+00 0.000000e+00 0
0.000000e+00 0.000000e+00 0
0.000000e+00 0.000000e+00 0
0.000000e+00 0.000000e+00 0
-4.484609e-17 0.000000e+00 0
0.000000e+00 0.000000e+00 0
0.000000e+00 0.000000e+00 0
0.000000e+00 0.000000e+00 0
3.535966e-17 0.000000e+00 0
0.000000e+00 0.000000e+00 0
0.000000e+00 0.000000e+00 0
0.000000e+00 0.000000e+00 0
-2.053549e-17 0.000000e+00 0
0.000000e+00 0.000000e+00 0
0.000000e+00 0.000000e+00 0
0.000000e+00 0.000000e+00 0
4.536341e-19 0.000000e+00 0
0.000000e+00 0.000000e+00 0
0.000000e+00 0.000000e+00 0
0.000000e+00 0.000000e+00 0
0.000000e+00 0.000000e+00 0
0.000000e+00 0.000000e+00 0
0.000000e+00 0.000000e+00 0
1.856349e-17 0.000000e+00 0
0.000000e+00 0.000000e+00 0
0.000000e+00 0.000000e+00 0
0.000000e+00 0.000000e+00 0
0.000000e+00 0.000000e+00 0
0.000000e+00 0.000000e+00 0
0.000000e+00 0.000000e+00 0
0.000000e+00 0.000000e+00 0
1.420598e-17 0.000000e+00 0
0.000000e+00 0.000000e+00 0
0.000000e+00 0.000000e+00 0
0.000000e+00 0.000000e+00 0
0.000000e+00 0.000000e+00 0
0.000000e+00 0.000000e+00 0
0.000000e+00 0.000000e+00 0
0.000000e+00 0.000000e+00 0
4.231058e-17 0.000000e+00 0
0.000000e+00 0.000000e+00 0
0.000000e+00 0.000000e+00 0
0.000000e+00 0.000000e+00 0
0.000000e+00 0.000000e+00 0
0.000000e+00 0.000000e+00 0
0.000000e+00 0.000000e+00 0
0.000000e+00 0.000000e+00 0
4.282530e-17 0.000000e+00 0
0.000000e+00 0.000000e+00 0
0.000000e+00 0.000000e+00 0
0.000000e+00 0.000000e+00 0
0.000000e+00 0.000000e+00 0
0.000000e+00 0.000000e+00 0
0.000000e+00 0.000000e+00 0
0.000000e+00 0.000000e+00 0
0.000000e+00 0.000000e+00 0
0.000000e+00 0.000000e+00 0
0.000000e+00 0.000000e+00 0
0.000000e+00 0.000000e+00 0
0.000000e+00 0.000000e+00 0
0.000000e+00 0.000000e+00 0
0.000000e+00 0.000000e+00 0
0.000000e+00 0.000000e+00 0
0.000000e+00 0.000000e+00 0
0.000000e+00 0.000000e+00 0
0.000000e+00 0.000000e+00 0
0.000000e+00 0.000000e+00 0
0.000000e+00 0.000000e+00 0
0.000000e+00 0.000000e+00 0
0.000000e+00 0.000000e+00 0
0.000000e+00 0.000000e+00 0
0.000000e+00 0.000000e+00 0
0.000000e+00 0.000000e+00 0
0.000000e+00 0.000000e+00 0
0.000000e+00 0.000000e+00 0
0.000000e+00 0.000000e+00 0
0.000000e+00 0.000000e+00 0
0.000000e+00 0.000000e+00 0
0.000000e+00 0.000000e+00 0
0.000000e+00 0.000000e+00 0
0.000000e+00 0.000000e+00 0
0.000000e+00 0.000000e+00 0
0.000000e+00 0.000000e+00 0
0.000000e+00 0.000000e+00 0
0.000000e+00 0.000000e+00 0
0.000000e+00 0.000000e+00 0
0.000000e+00 0.000000e+00 0
0.000000e+00 0.000000e+00 0
0.000000e+00 0.000000e+00 0
0.000000e+00 0.000000e+00 0
0.000000e+00 0.000000e+00 0
0.000000e+00 0.000000e+00 0
0.000000e+00 0.000000e+00 0
0.000000e+00 0.000000e+00 0
0.000000e+00 0.000000e+00 0
0.000000e+00 0.000000e+00 0
0.000000e+00 0.000000e+00 0
0.000000e+00 0.000000e+00 0
0.000000e+00 0.000000e+00 0
0.000000e+00 0.000000e+00 0
0.000000e+00 0.000000e+00 0
0.000000e+00 0.000000e+00 0
0.000000e+00 0.000000e+00 0
0.000000e+00 0.000000e+00 0
0.000000e+00 0.000000e+00 0
0.000000e+00 0.000000e+00 0
0.000000e+00 0.000000e+00 0
0.000000e+00 0.000000e+00 0
0.000000e+00 0.000000e+00 0
0.000000e+00 0.000000e+00 0
0.000000e+00 0.000000e+00 0
0.000000e+00 0.000000e+00 0
0.000000e+00 0.000000e+00 0
0.000000e+00 0.000000e+00 0
0.000000e+00 0.000000e+00 0
0.000000e+00 0.000000e+00 0
0.000000e+00 0.000000e+00 0
0.000000e+00 0.000000e+00 0
0.000000e+00 0.000000e+00 0
0.000000e+00 0.000000e+00 0
0.000000e+00 0.000000e+00 0
0.000000e+00 0.000000e+00 0
0.000000e+00 0.000000e+00 0
0.000000e+00 0.000000e+00 0
0.000000e+00 0.000000e+00 0
0.000000e+00 0.000000e+00 0
0.000000e+00 0.000000e+00 0
0.000000e+00 0.000000e+00 0
0.000000e+00 0.000000e+00 0
0.000000e+00 0.000000e+00 0
0.000000e+00 0.000000e+00 0
0.000000e+00 0.000000e+00 0
0.000000e+00 0.000000e+00 0
0.000000e+00 0.000000e+00 0
0.000000e+00 0.000000e+00 0
0.000000e+00 0.000000e+00 0
0.000000e+00 0.000000e+00 0
0.000000e+00 0.000000e+00 0
0.000000e+00 0.000000e+00 0
0.000000e+00 0.000000e+00 0
0.000000e+00 0.000000e+00 0
0.000000e+00 0.000000e+00 0
0.000000e+00 0.000000e+00 0
0.000000e+00 0.000000e+00 0
1.893624e+00 -3.060707e-05 0
1.893624e+00 -3.195567e-05 0
1.893650e+00 -2.575189e-05 0
1.893662e+00 -5.496370e-06 0
1.893651e+00 2.444493e-05 0
1.893607e+00 6.446807e-05 0
1.893520e+00 1.162901e-04 0
1.893377e+00 1.813337e-04 0
1.893165e+00 2.611312e-04 0
1.892870e+00 3.574109e-04 0
1.892475e+00 4.721341e-04 0
1.891960e+00 6.075510e-04 0
1.891306e+00 7.662009e-04 0
1.890489e+00 9.509413e-04 0
1.889483e+00 1.164999e-03 0
1.888257e+00 1.412003e-03 0
1.886780e+00 1.696097e-03 0
1.885013e+00 2.022071e-03 0
1.882914e+00 2.395543e-03 0
1.880434e+00 2.823206e-03 0
1.877520e+00 3.313095e-03 0
1.874106e+00 3.874845e-03 0
1.870120e+00 4.519930e-03 0
1.865476e+00 5.261727e-03 0
1.860075e+00 6.115243e-03 0
1.853801e+00 7.095831e-03 0
1.846524e+00 8.215699e-03 0
1.838100e+00 9.476277e-03 0
1.828392e+00 1.085298e-02 0
1.817293e+00 1.226846e-02 0
1.804802e+00 1.355496e-02 0
1.791136e+00 1.442531e-02 0
1.776885e+00 1.451447e-02 0
1.763087e+00 1.358513e-02 0
1.750886e+00 1.179530e-02 0
1.740870e+00 9.601202e-03 0
1.733082e+00 7.421982e-03 0
1.727261e+00 5.500722e-03 0
1.723047e+00 3.924119e-03 0
1.720087e+00 2.685785e-03 0
1.718081e+00 1.737732e-03 0
1.716792e+00 1.018722e-03 0
1.716039e+00 4.579126e-04 0
1.715693e+00 -4.845137e-05 0
1.715656e+00 -4.969302e-04 0
1.715858e+00 -8.267107e-04 0
1.716229e+00 -1.052406e-03 0
1.716710e+00 -1.188767e-03 0
1.717249e+00 -1.250432e-03 0
1.717804e+00 -1.251060e-03 0
1.718343e+00 -1.202870e-03 0
1.718837e+00 -1.116504e-03 0
1.719266e+00 -1.001056e-03 0
1.719615e+00 -8.641237e-04 0
1.719873e+00 -7.117554e-04 0
1.720032e+00 -5.486608e-04 0
1.720089e+00 -3.766921e-04 0
1.720057e+00 -2.075564e-04 0
1.719943e+00 -6.519422e-05 0
1.719753e+00 3.910195e-05 0
1.719494e+00 1.177560e-04 0
1.719171e+00 1.858689e-04 0
1.718789e+00 2.479750e-04 0
1.718352e+00 3.057067e-04 0
1.717864e+00 3.597872e-04 0
1.717326e+00 4.106148e-04 0
1.716743e+00 4.584558e-04 0
1.716116e+00 5.035098e-04 0
1.715448e+00 5.459305e-04 0
1.714742e+00 5.858355e-04 0
1.713999e+00 6.233202e-04 0
1.713222e+00 6.584754e-04 0
1.712413e+00 6.914017e-04 0
1.711574e+00 7.222119e-04 0
1.710707e+00 7.510214e-04 0
1.709813e+00 7.779358e-04 0
1.708895e+00 8.030430e-04 0
1.707954e+00 8.264174e-04 0
1.706991e+00 8.481302e-04 0
1.706008e+00 8.682575e-04 0
1.705006e+00 8.868820e-04 0
1.703987e+00 9.040867e-04 0
1.702952e+00 9.199487e-04 0
1.701902e+00 9.345359e-04 0
1.700839e+00 9.479093e-04 0
1.699762e+00 9.601276e-04 0
1.698675e+00 9.712496e-04 0
1.697576e+00 9.813341e-04 0
1.696468e+00 9.904370e-04 0
1.695352e+00 9.986100e-04 0
1.694227e+00 1.005901e-03 0
1.693095e+00 1.012357e-03 0
1.691957e+00 1.018021e-03 0
1.690812e+00 1.022939e-03 0
1.689663e+00 1.027151e-03 0
1.688510e+00 1.030692e-03 0
1.687353e+00 1.033597e-03 0
1.686192e+00 1.035896e-03 0
1.685029e+00 1.037620e-03 0
1.683864e+00 1.038801e-03 0
1.682697e+00 1.039470e-03 0
1.681529e+00 1.039655e-03 0
1.680360e+00 1.039383e-03 0
1.679190e+00 1.038676e-03 0
1.678021e+00 1.037555e-03 0
1.676852e+00 1.036038e-03 0
1.675684e+00 1.034146e-03 0
1.674517e+00 1.031897e-03 0
1.673352e+00 1.029310e-03 0
1.672188e+00 1.026403e-03 0
1.671027e+00 1.023191e-03 0
1.669867e+00 1.019688e-03 0
1.668710e+00 1.015907e-03 0
1.667557e+00 1.011861e-03 0
1.666406e+00 1.007559e-03 0
1.665259e+00 1.003012e-03 0
1.664115e+00 9.982290e-04 0
1.662975e+00 9.932183e-04 0
1.661839e+00 9.879878e-04 0
1.660707e+00 9.825454e-04 0
1.659580e+00 9.768988e-04 0
1.658457e+00 9.710551e-04 0
1.657339e+00 9.650201e-04 0
1.656226e+00 9.587982e-04 0
1.655118e+00 9.523928e-04 0
1.654016e+00 9.458064e-04 0
1.652919e+00 9.390416e-04 0
1.651828e+00 9.321008e-04 0
1.650742e+00 9.249869e-04 0
1.649663e+00 9.177019e-04 0
1.648590e+00 9.102478e-04 0
1.647523e+00 9.026255e-04 0
1.646463e+00 8.948358e-04 0
1.645409e+00 8.868784e-04 0
1.644363e+00 8.787531e-04 0
1.643323e+00 8.704594e-04 0
1.642291e+00 8.619961e-04 0
1.641266e+00 8.533617e-04 0
1.640248e+00 8.445540e-04 0
1.639239e+00 8.355698e-04 0
1.638237e+00 8.264044e-04 0
1.637243e+00 8.170518e-04 0
1.636258e+00 8.075030e-04 0
1.635281e+00 7.977453e-04 0
1.634312e+00 7.877605e-04 0
1.633353e+00 7.775222e-04 0
1.632403e+00 7.669917e-04 0
1.631462e+00 7.561112e-04 0
1.630531e+00 7.447957e-04 0
1.629611e+00 7.329146e-04 0
1.628701e+00 7.202674e-04 0
1.627804e+00 7.065344e-04 0
1.626919e+00 6.911790e-04 0
1.626049e+00 6.732343e-04 0
1.625197e+00 6.506034e-04 0
1.624366e+00 6.193496e-04 0
1.623567e+00 5.429542e-04 0
1.622810e+00 6.153569e-04 0
1.622810e+00 7.457551e-04 0
3.014060e+00 -6.089838e-05 0
3.014060e+00 -5.753288e-05 0
3.014082e+00 -3.978213e-05 0
3.014093e+00 -1.386294e-06 0
3.014084e+00 5.724369e-05 0
3.014046e+00 1.378810e-04 0
3.013968e+00 2.424610e-04 0
3.013842e+00 3.735320e-04 0
3.013653e+00 5.341242e-04 0
3.013390e+00 7.277344e-04 0
3.013037e+00 9.583732e-04 0
3.012579e+00 1.230581e-03 0
3.011995e+00 1.549456e-03 0
3.011265e+00 1.920733e-03 0
3.010366e+00 2.350844e-03 0
3.009270e+00 2.847063e-03 0
3.007949e+00 3.417717e-03 0
3.006368e+00 4.072439e-03 0
3.004490e+00 4.822554e-03 0
3.002273e+00 5.681542e-03 0
2.999666e+00 6.665540e-03 0
2.996614e+00 7.793946e-03 0
2.993052e+00 9.089964e-03 0
2.988902e+00 1.058096e-02 0
2.984075e+00 1.229811e-02 0
2.978465e+00 1.427425e-02 0
2.971944e+00 1.653775e-02 0
2.964364e+00 1.909828e-02 0
2.955556e+00 2.191658e-02 0
2.945342e+00 2.484785e-02 0
2.933588e+00 2.755289e-02 0
2.920337e+00 2.940609e-02 0
2.906106e+00 2.954529e-02 0
2.892292e+00 2.738659e-02 0
2.880704e+00 2.340129e-02 0
2.871813e+00 1.875271e-02 0
2.865298e+00 1.433475e-02 0
2.860637e+00 1.057095e-02 0
2.857350e+00 7.557783e-03 0
2.855065e+00 5.231077e-03 0
2.853506e+00 3.470654e-03 0
2.852473e+00 2.150233e-03 0
2.851818e+00 1.156797e-03 0
2.851419e+00 4.037374e-04 0
2.851132e+00 -1.729580e-04 0
2.850918e+00 -6.034025e-04 0
2.850750e+00 -8.974144e-04 0
2.850606e+00 -1.074071e-03 0
2.850471e+00 -1.152948e-03 0
2.850332e+00 -1.152084e-03 0
2.850179e+00 -1.087422e-03 0
2.850005e+00 -9.727737e-04 0
2.849804e+00 -8.199692e-04 0
2.849572e+00 -6.390619e-04 0
2.849306e+00 -4.384193e-04 0
2.849009e+00 -2.277430e-04 0
2.848687e+00 -2.652486e-05 0
2.848344e+00 1.545551e-04 0
2.847975e+00 3.201677e-04 0
2.847567e+00 4.727575e-04 0
2.847109e+00 6.130080e-04 0
2.846598e+00 7.421859e-04 0
2.846037e+00 8.623898e-04 0
2.845428e+00 9.750270e-04 0
2.844773e+00 1.080975e-03 0
2.844075e+00 1.180818e-03 0
2.843336e+00 1.274982e-03 0
2.842558e+00 1.363797e-03 0
2.841744e+00 1.447528e-03 0
2.840895e+00 1.526397e-03 0
2.840014e+00 1.600600e-03 0
2.839102e+00 1.670334e-03 0
2.838161e+00 1.735800e-03 0
2.837193e+00 1.797207e-03 0
2.836199e+00 1.854758e-03 0
2.835181e+00 1.908634e-03 0
2.834141e+00 1.959003e-03 0
2.833079e+00 2.006015e-03 0
2.831998e+00 2.049824e-03 0
2.830898e+00 2.090585e-03 0
2.829781e+00 2.128454e-03 0
2.828647e+00 2.163583e-03 0
2.827499e+00 2.196111e-03 0
2.826336e+00 2.226166e-03 0
2.825160e+00 2.253870e-03 0
2.823973e+00 2.279340e-03 0
2.822774e+00 2.302690e-03 0
2.821565e+00 2.324032e-03 0
2.820346e+00 2.343471e-03 0
2.819118e+00 2.361105e-03 0
2.817882e+00 2.377028e-03 0
2.816639e+00 2.391331e-03 0
2.815390e+00 2.404099e-03 0
2.814134e+00 2.415414e-03 0
2.812873e+00 2.425351e-03 0
2.811606e+00 2.433979e-03 0
2.810336e+00 2.441363e-03 0
2.809061e+00 2.447568e-03 0
2.807783e+00 2.452656e-03 0
2.806502e+00 2.456686e-03 0
2.805219e+00 2.459716e-03 0
2.803933e+00 2.461797e-03 0
2.802645e+00 2.462974e-03 0
2.801357e+00 2.463294e-03 0
2.800067e+00 2.462797e-03 0
2.798776e+00 2.461524e-03 0
2.797485e+00 2.459514e-03 0
2.796194e+00 2.456802e-03 0
2.794903e+00 2.453422e-03 0
2.793613e+00 2.449405e-03 0
2.792323e+00 2.444779e-03 0
2.791034e+00 2.439573e-03 0
2.789747e+00 2.433811e-03 0
2.788461e+00 2.427517e-03 0
2.787177e+00 2.420713e-03 0
2.785895e+00 2.413416e-03 0
2.784615e+00 2.405644e-03 0
2.783337e+00 2.397412e-03 0
2.782062e+00 2.388736e-03 0
2.780789e+00 2.379632e-03 0
2.779519e+00 2.370114e-03 0
2.778253e+00 2.360193e-03 0
2.776989e+00 2.349879e-03 0
2.775730e+00 2.339180e-03 0
2.774473e+00 2.328102e-03 0
2.773221e+00 2.316651e-03 0
2.771972e+00 2.304832e-03 0
2.770728e+00 2.292651e-03 0
2.769487e+00 2.280112e-03 0
2.768252e+00 2.267218e-03 0
2.767020e+00 2.253971e-03 0
2.765794e+00 2.240374e-03 0
2.764572e+00 2.226425e-03 0
2.763356e+00 2.212125e-03 0
2.762144e+00 2.197473e-03 0
2.760939e+00 2.182467e-03 0
2.759738e+00 2.167105e-03 0
2.758543e+00 2.151383e-03 0
2.757355e+00 2.135296e-03 0
2.756172e+00 2.118838e-03 0
2.754995e+00 2.101998e-03 0
2.753825e+00 2.084765e-03 0
2.752661e+00 2.067120e-03 0
2.751505e+00 2.049037e-03 0
2.750355e+00 2.030481e-03 0
2.749212e+00 2.011397e-03 0
2.748077e+00 1.991709e-03 0
2.746949e+00 1.971303e-03 0
2.745829e+00 1.950010e-03 0
2.744718e+00 1.927575e-03 0
2.743616e+00 1.903609e-03 0
2.742523e+00 1.877499e-03 0
2.741441e+00 1.848249e-03 0
2.740370e+00 1.814169e-03 0
2.739312e+00 1.772281e-03 0
2.738268e+00 1.717051e-03 0
2.737240e+00 1.639704e-03 0
2.736195e+00 1.621253e-03 0
2.736195e+00 1.648292e-03 0
3.643207e+00 -9.350083e-05 0
3.643207e+00 -8.706793e-05 0
3.643235e+00 -6.079141e-05 0
3.643255e+00 -7.467855e-06 0
3.643261e+00 7.412042e-05 0
3.643245e+00 1.861620e-04 0
3.643201e+00 3.314567e-04 0
3.643121e+00 5.135638e-04 0
3.642997e+00 7.367352e-04 0
3.642818e+00 1.005923e-03 0
3.642574e+00 1.326785e-03 0
3.642251e+00 1.705692e-03 0
3.641837e+00 2.149783e-03 0
3.641314e+00 2.667030e-03 0
3.640665e+00 3.266349e-03 0
3.639870e+00 3.957810e-03 0
3.638908e+00 4.752889e-03 0
3.637753e+00 5.664851e-03 0
3.636378e+00 6.709287e-03 0
3.634751e+00 7.904705e-03 0
3.632838e+00 9.273325e-03 0
3.630598e+00 1.084203e-02 0
3.627986e+00 1.264342e-02 0
3.624945e+00 1.471684e-02 0
3.621411e+00 1.710914e-02 0
3.617300e+00 1.987402e-02 0
3.612506e+00 2.306813e-02 0
3.606881e+00 2.673844e-02 0
3.600214e+00 3.088971e-02 0
3.592191e+00 3.540768e-02 0
3.582364e+00 3.989353e-02 0
3.570216e+00 4.337339e-02 0
3.555686e+00 4.405579e-02 0
3.540966e+00 4.034173e-02 0
3.530331e+00 3.336652e-02 0
3.523569e+00 2.582887e-02 0
3.519420e+00 1.919381e-02 0
3.516862e+00 1.387264e-02 0
3.515259e+00 9.793208e-03 0
3.514242e+00 6.734894e-03 0
3.513600e+00 4.467743e-03 0
3.513202e+00 2.796486e-03 0
3.512961e+00 1.568684e-03 0
3.512814e+00 6.747208e-04 0
3.512709e+00 3.021360e-05 0
3.512607e+00 -4.245506e-04 0
3.512492e+00 -7.237068e-04 0
3.512356e+00 -8.947077e-04 0
3.512198e+00 -9.611869e-04 0
3.512017e+00 -9.434067e-04 0
3.511812e+00 -8.586712e-04 0
3.511584e+00 -7.217175e-04 0
3.511333e+00 -5.451197e-04 0
3.511059e+00 -3.397284e-04 0
3.510767e+00 -1.191093e-04 0
3.510459e+00 1.033057e-04 0
3.510133e+00 3.245466e-04 0
3.509779e+00 5.428157e-04 0
3.509389e+00 7.525801e-04 0
3.508963e+00 9.514880e-04 0
3.508499e+00 1.138871e-03 0
3.507996e+00 1.315034e-03 0
3.507454e+00 1.480857e-03 0
3.506876e+00 1.637208e-03 0
3.506262e+00 1.784794e-03 0
3.505615e+00 1.924186e-03 0
3.504936e+00 2.055846e-03 0
3.504226e+00 2.180164e-03 0
3.503488e+00 2.297470e-03 0
3.502723e+00 2.408059e-03 0
3.501931e+00 2.512207e-03 0
3.501116e+00 2.610190e-03 0
3.500278e+00 2.702291e-03 0
3.499418e+00 2.788788e-03 0
3.498538e+00 2.869946e-03 0
3.497639e+00 2.946012e-03 0
3.496721e+00 3.017212e-03 0
3.495787e+00 3.083766e-03 0
3.494837e+00 3.145893e-03 0
3.493873e+00 3.203812e-03 0
3.492894e+00 3.257734e-03 0
3.491903e+00 3.307863e-03 0
3.490899e+00 3.354387e-03 0
3.489884e+00 3.397486e-03 0
3.488858e+00 3.437328e-03 0
3.487823e+00 3.474079e-03 0
3.486778e+00 3.507898e-03 0
3.485725e+00 3.538934e-03 0
3.484664e+00 3.567331e-03 0
3.483596e+00 3.593226e-03 0
3.482521e+00 3.616751e-03 0
3.481440e+00 3.638030e-03 0
3.480353e+00 3.657183e-03 0
3.479261e+00 3.674317e-03 0
3.478164e+00 3.689536e-03 0
3.477063e+00 3.702935e-03 0
3.475958e+00 3.714607e-03 0
3.474849e+00 3.724642e-03 0
3.473737e+00 3.733128e-03 0
3.472623e+00 3.740147e-03 0
3.471506e+00 3.745774e-03 0
3.470387e+00 3.750078e-03 0
3.469266e+00 3.753123e-03 0
3.468143e+00 3.754970e-03 0
3.467020e+00 3.755680e-03 0
3.465895e+00 3.755308e-03 0
3.464769e+00 3.753909e-03 0
3.463643e+00 3.751531e-03 0
3.462516e+00 3.748219e-03 0
3.461390e+00 3.744013e-03 0
3.460263e+00 3.738954e-03 0
3.459137e+00 3.733079e-03 0
3.458011e+00 3.726425e-03 0
3.456886e+00 3.719025e-03 0
3.455762e+00 3.710905e-03 0
3.454639e+00 3.702092e-03 0
3.453517e+00 3.692609e-03 0
3.452396e+00 3.682477e-03 0
3.451277e+00 3.671719e-03 0
3.450160e+00 3.660355e-03 0
3.449044e+00 3.648406e-03 0
3.447930e+00 3.635884e-03 0
3.446819e+00 3.622804e-03 0
3.445709e+00 3.609174e-03 0
3.444602e+00 3.595004e-03 0
3.443497e+00 3.580301e-03 0
3.442395e+00 3.565075e-03 0
3.441296e+00 3.549332e-03 0
3.440199e+00 3.533078e-03 0
3.439106e+00 3.516316e-03 0
3.438016e+00 3.499048e-03 0
3.436929e+00 3.481276e-03 0
3.435845e+00 3.462999e-03 0
3.434765e+00 3.444217e-03 0
3.433688e+00 3.424930e-03 0
3.432616e+00 3.405133e-03 0
3.431547e+00 3.384824e-03 0
3.430482e+00 3.363997e-03 0
3.429421e+00 3.342645e-03 0
3.428365e+00 3.320759e-03 0
3.427313e+00 3.298326e-03 0
3.426266e+00 3.275329e-03 0
3.425223e+00 3.251745e-03 0
3.424185e+00 3.227541e-03 0
3.423153e+00 3.202669e-03 0
3.422125e+00 3.177062e-03 0
3.421103e+00 3.150622e-03 0
3.420086e+00 3.123206e-03 0
3.419075e+00 3.094606e-03 0
3.418070e+00 3.064510e-03 0
3.417071e+00 3.032456e-03 0
3.416078e+00 2.997745e-03 0
3.415091e+00 2.959321e-03 0
3.414111e+00 2.915579e-03 0
3.413138e+00 2.864174e-03 0
3.412168e+00 2.802115e-03 0
3.411199e+00 2.726437e-03 0
3.410220e+00 2.655315e-03 0
3.410220e+00 2.625774e-03 0
3.998428e+00 -1.311748e-04 0
3.998428e+00 -1.229927e-04 0
3.998465e+00 -9.130430e-05 0
3.998496e+00 -2.814417e-05 0
3.998518e+00 6.836030e-05 0
3.998527e+00 2.008119e-04 0
3.998520e+00 3.727389e-04 0
3.998490e+00 5.885111e-04 0
3.998431e+00 8.533489e-04 0
3.998338e+00 1.173313e-03 0
3.998203e+00 1.555288e-03 0
3.998016e+00 2.006997e-03 0
3.997768e+00 2.537034e-03 0
3.997447e+00 3.154919e-03 0
3.997042e+00 3.871248e-03 0
3.996538e+00 4.697877e-03 0
3.995921e+00 5.648230e-03 0
3.995173e+00 6.737765e-03 0
3.994277e+00 7.984521e-03 0
3.993214e+00 9.409871e-03 0
3.991961e+00 1.103955e-02 0
3.990496e+00 1.290490e-02 0
3.988790e+00 1.504451e-02 0
3.986813e+00 1.750645e-02 0
3.984525e+00 2.035103e-02 0
3.981876e+00 2.365444e-02 0
3.978790e+00 2.751294e-02 0
3.975145e+00 3.204589e-02 0
3.970723e+00 3.738965e-02 0
3.965101e+00 4.364986e-02 0
3.957425e+00 5.070018e-02 0
3.946044e+00 5.750718e-02 0
3.928403e+00 6.035532e-02 0
3.907761e+00 5.409267e-02 0
3.897894e+00 4.172547e-02 0
3.894249e+00 3.024631e-02 0
3.893269e+00 2.140002e-02 0
3.893279e+00 1.495418e-02 0
3.893599e+00 1.031712e-02 0
3.893976e+00 6.978359e-03 0
3.894325e+00 4.566575e-03 0
3.894620e+00 2.822268e-03 0
3.894856e+00 1.565158e-03 0
3.895029e+00 6.694610e-04 0
3.895143e+00 4.483655e-05 0
3.895195e+00 -3.741914e-04 0
3.895187e+00 -6.332287e-04 0
3.895124e+00 -7.650648e-04 0
3.895012e+00 -7.953648e-04 0
3.894860e+00 -7.449383e-04 0
3.894672e+00 -6.309979e-04 0
3.894452e+00 -4.678928e-04 0
3.894207e+00 -2.674405e-04 0
3.893939e+00 -4.336748e-05 0
3.893652e+00 1.938893e-04 0
3.893343e+00 4.401460e-04 0
3.893008e+00 6.901069e-04 0
3.892649e+00 9.379422e-04 0
3.892264e+00 1.179166e-03 0
3.891851e+00 1.411066e-03 0
3.891411e+00 1.632295e-03 0
3.890942e+00 1.842441e-03 0
3.890446e+00 2.041663e-03 0
3.889921e+00 2.230358e-03 0
3.889371e+00 2.408989e-03 0
3.888795e+00 2.578012e-03 0
3.888195e+00 2.737855e-03 0
3.887572e+00 2.888911e-03 0
3.886927e+00 3.031537e-03 0
3.886261e+00 3.166073e-03 0
3.885577e+00 3.292850e-03 0
3.884873e+00 3.412205e-03 0