<?xml version="1.0"?>
<VTKFile type="StructuredGrid">
<StructuredGrid WholeExtent="0 158 0 30 0 0 ">
<Piece Extent="0 158 0 30 0 0 ">
<Points>
<DataArray type="Float64" format="ascii" NumberOfComponents="3">
0.000000e+00 0.000000e+00 0.000000e+00
3.164557e-02 0.000000e+00 0.000000e+00
6.329114e-02 0.000000e+00 0.000000e+00
9.493671e-02 0.000000e+00 0.000000e+00
1.265823e-01 0.000000e+00 0.000000e+00
1.582278e-01 0.000000e+00 0.000000e+00
1.898734e-01 0.000000e+00 0.000000e+00
2.215190e-01 0.000000e+00 0.000000e+00
2.531646e-01 0.000000e+00 0.000000e+00
2.848101e-01 0.000000e+00 0.000000e+00
3.164557e-01 0.000000e+00 0.000000e+00
3.481013e-01 0.000000e+00 0.000000e+00
3.797468e-01 0.000000e+00 0.000000e+00
4.113924e-01 0.000000e+00 0.000000e+00
4.430380e-01 0.000000e+00 0.000000e+00
4.746835e-01 0.000000e+00 0.000000e+00
5.063291e-01 0.000000e+00 0.000000e+00
5.379747e-01 0.000000e+00 0.000000e+00
5.696203e-01 0.000000e+00 0.000000e+00
6.012658e-01 0.000000e+00 0.000000e+00
6.329114e-01 0.000000e+00 0.000000e+00
6.645570e-01 0.000000e+00 0.000000e+00
6.962025e-01 0.000000e+00 0.000000e+00
7.278481e-01 0.000000e+00 0.000000e+00
7.594937e-01 0.000000e+00 0.000000e+00
7.911392e-01 0.000000e+00 0.000000e+00
8.227848e-01 0.000000e+00 0.000000e+00
8.544304e-01 0.000000e+00 0.000000e+00
8.860759e-01 0.000000e+00 0.000000e+00
9.177215e-01 0.000000e+00 0.000000e+00
9.493671e-01 0.000000e+00 0.000000e+00
9.810127e-01 0.000000e+00 0.000000e+00
1.012658e+00 0.000000e+00 0.000000e+00
1.044304e+00 0.000000e+00 0.000000e+00
1.075949e+00 0.000000e+00 0.000000e+00
1.107595e+00 0.000000e+00 0.000000e+00
1.139241e+00 0.000000e+00 0.000000e+00
1.170886e+00 0.000000e+00 0.000000e+00
1.202532e+00 0.000000e+00 0.000000e+00
1.234177e+00 0.000000e+00 0.000000e+00
1.265823e+00 0.000000e+00 0.000000e+00
1.297468e+00 0.000000e+00 0.000000e+00
1.329114e+00 0.000000e+00 0.000000e+00
1.360759e+00 0.000000e+00 0.000000e+00
1.392405e+00 0.000000e+00 0.000000e+00
1.424051e+00 0.000000e+00 0.000000e+00
1.455696e+00 0.000000e+00 0.000000e+00
1.487342e+00 0.000000e+00 0.000000e+00
1.518987e+00 0.000000e+00 0.000000e+00
1.550633e+00 0.000000e+00 0.000000e+00
1.582278e+00 0.000000e+00 0.000000e+00
1.613924e+00 0.000000e+00 0.000000e+00
1.645570e+00 0.000000e+00 0.000000e+00
1.677215e+00 0.000000e+00 0.000000e+00
1.708861e+00 0.000000e+00 0.000000e+00
1.740506e+00 0.000000e+00 0.000000e+00
1.772152e+00 0.000000e+00 0.000000e+00
1.803797e+00 0.000000e+00 0.000000e+00
1.835443e+00 0.000000e+00 0.000000e+00
1.867089e+00 0.000000e+00 0.000000e+00
1.898734e+00 0.000000e+00 0.000000e+00
1.930380e+00 0.000000e+00 0.000000e+00
1.962025e+00 0.000000e+00 0.000000e+00
1.993671e+00 0.000000e+00 0.000000e+00
2.025316e+00 0.000000e+00 0.000000e+00
2.056962e+00 0.000000e+00 0.000000e+00
2.088608e+00 0.000000e+00 0.000000e+00
2.120253e+00 0.000000e+00 0.000000e+00
2.151899e+00 0.000000e+00 0.000000e+00
2.183544e+00 0.000000e+00 0.000000e+00
2.215190e+00 0.000000e+00 0.000000e+00
2.246835e+00 0.000000e+00 0.000000e+00
2.278481e+00 0.000000e+00 0.000000e+00
2.310127e+00 0.000000e+00 0.000000e+00
2.341772e+00 0.000000e+00 0.000000e+00
2.373418e+00 0.000000e+00 0.000000e+00
2.405063e+00 0.000000e+00 0.000000e+00
2.436709e+00 0.000000e+00 0.000000e+00
2.468354e+00 0.000000e+00 0.000000e+00
2.500000e+00 0.000000e+00 0.000000e+00
2.531646e+00 0.000000e+00 0.000000e+00
2.563291e+00 0.000000e+00 0.000000e+00
2.594937e+00 0.000000e+00 0.000000e+00
2.626582e+00 0.000000e+00 0.000000e+00
2.658228e+00 0.000000e+00 0.000000e+00
2.689873e+00 0.000000e+00 0.000000e+00
2.721519e+00 0.000000e+00 0.000000e+00
2.753165e+00 0.000000e+00 0.000000e+00
2.784810e+00 0.000000e+00 0.000000e+00
2.816456e+00 0.000000e+00 0.000000e+00
2.848101e+00 0.000000e+00 0.000000e+00
2.879747e+00 0.000000e+00 0.000000e+00
2.911392e+00 0.000000e+00 0.000000e+00
2.943038e+00 0.000000e+00 0.000000e+00
2.974684e+00 0.000000e+00 0.000000e+00
3.006329e+00 0.000000e+00 0.000000e+00
3.037975e+00 0.000000e+00 0.000000e+00
3.069620e+00 0.000000e+00 0.000000e+00
3.101266e+00 0.000000e+00 0.000000e+00
3.132911e+00 0.000000e+00 0.000000e+00
3.164557e+00 0.000000e+00 0.000000e+00
3.196203e+00 0.000000e+00 0.000000e+00
3.227848e+00 0.000000e+00 0.000000e+00
3.259494e+00 0.000000e+00 0.000000e+00
3.291139e+00 0.000000e+00 0.000000e+00
3.322785e+00 0.000000e+00 0.000000e+00
3.354430e+00 0.000000e+00 0.000000e+00
3.386076e+00 0.000000e+00 0.000000e+00
3.417722e+00 0.000000e+00 0.000000e+00
3.449367e+00 0.000000e+00 0.000000e+00
3.481013e+00 0.000000e+00 0.000000e+00
3.512658e+00 0.000000e+00 0.000000e+00
3.544304e+00 0.000000e+00 0.000000e+00
3.575949e+00 0.000000e+00 0.000000e+00
3.607595e+00 0.000000e+00 0.000000e+00
3.639241e+00 0.000000e+00 0.000000e+00
3.670886e+00 0.000000e+00 0.000000e+00
3.702532e+00 0.000000e+00 0.000000e+00
3.734177e+00 0.000000e+00 0.000000e+00
3.765823e+00 0.000000e+00 0.000000e+00
3.797468e+00 0.000000e+00 0.000000e+00
3.829114e+00 0.000000e+00 0.000000e+00
3.860759e+00 0.000000e+00 0.000000e+00
3.892405e+00 0.000000e+00 0.000000e+00
3.924051e+00 0.000000e+00 0.000000e+00
3.955696e+00 0.000000e+00 0.000000e+00
3.987342e+00 0.000000e+00 0.000000e+00
4.018987e+00 0.000000e+00 0.000000e+00
4.050633e+00 0.000000e+00 0.000000e+00
4.082278e+00 0.000000e+00 0.000000e+00
4.113924e+00 0.000000e+00 0.000000e+00
4.145570e+00 0.000000e+00 0.000000e+00
4.177215e+00 0.000000e+00 0.000000e+00
4.208861e+00 0.000000e+00 0.000000e+00
4.240506e+00 0.000000e+00 0.000000e+00
4.272152e+00 0.000000e+00 0.000000e+00
4.303797e+00 0.000000e+00 0.000000e+00
4.335443e+00 0.000000e+00 0.000000e+00
4.367089e+00 0.000000e+00 0.000000e+00
4.398734e+00 0.000000e+00 0.000000e+00
4.430380e+00 0.000000e+00 0.000000e+00
4.462025e+00 0.000000e+00 0.000000e+00
4.493671e+00 0.000000e+00 0.000000e+00
4.525316e+00 0.000000e+00 0.000000e+00
4.556962e+00 0.000000e+00 0.000000e+00
4.588608e+00 0.000000e+00 0.000000e+00
4.620253e+00 0.000000e+00 0.000000e+00
4.651899e+00 0.000000e+00 0.000000e+00
4.683544e+00 0.000000e+00 0.000000e+00
4.715190e+00 0.000000e+00 0.000000e+00
4.746835e+00 0.000000e+00 0.000000e+00
4.778481e+00 0.000000e+00 0.000000e+00
4.810127e+00 0.000000e+00 0.000000e+00
4.841772e+00 0.000000e+00 0.000000e+00
4.873418e+00 0.000000e+00 0.000000e+00
4.905063e+00 0.000000e+00 0.000000e+00
4.936709e+00 0.000000e+00 0.000000e+00
4.968354e+00 0.000000e+00 0.000000e+00
5.000000e+00 0.000000e+00 0.000000e+00
0.000000e+00 3.333333e-02 0.000000e+00
3.164557e-02 3.333333e-02 0.000000e+00
6.329114e-02 3.333333e-02 0.000000e+00
9.493671e-02 3.333333e-02 0.000000e+00
1.265823e-01 3.333333e-02 0.000000e+00
1.582278e-01 3.333333e-02 0.000000e+00
1.898734e-01 3.333333e-02 0.000000e+00
2.215190e-01 3.333333e-02 0.000000e+00
2.531646e-01 3.333333e-02 0.000000e+00
2.848101e-01 3.333333e-02 0.000000e+00
3.164557e-01 3.333333e-02 0.000000e+00
3.481013e-01 3.333333e-02 0.000000e+00
3.797468e-01 3.333333e-02 0.000000e+00
4.113924e-01 3.333333e-02 0.000000e+00
4.430380e-01 3.333333e-02 0.000000e+00
4.746835e-01 3.333333e-02 0.000000e+00
5.063291e-01 3.333333e-02 0.000000e+00
5.379747e-01 3.333333e-02 0.000000e+00
5.696203e-01 3.333333e-02 0.000000e+00
6.012658e-01 3.333333e-02 0.000000e+00
6.329114e-01 3.333333e-02 0.000000e+00
6.645570e-01 3.333333e-02 0.000000e+00
6.962025e-01 3.333333e-02 0.000000e+00
7.278481e-01 3.333333e-02 0.000000e+00
7.594937e-01 3.333333e-02 0.000000e+00
7.911392e-01 3.333333e-02 0.000000e+00
8.227848e-01 3.333333e-02 0.000000e+00
8.544304e-01 3.333333e-02 0.000000e+00
8.860759e-01 3.333333e-02 0.000000e+00
9.177215e-01 3.333333e-02 0.000000e+00
9.493671e-01 3.333333e-02 0.000000e+00
9.810127e-01 3.333333e-02 0.000000e+00
1.012658e+00 3.333333e-02 0.000000e+00
1.044304e+00 3.333333e-02 0.000000e+00
1.075949e+00 3.333333e-02 0.000000e+00
1.107595e+00 3.333333e-02 0.000000e+00
1.139241e+00 3.333333e-02 0.000000e+00
1.170886e+00 3.333333e-02 0.000000e+00
1.202532e+00 3.333333e-02 0.000000e+00
1.234177e+00 3.333333e-02 0.000000e+00
1.265823e+00 3.333333e-02 0.000000e+00
1.297468e+00 3.333333e-02 0.000000e+00
1.329114e+00 3.333333e-02 0.000000e+00
1.360759e+00 3.333333e-02 0.000000e+00
1.392405e+00 3.333333e-02 0.000000e+00
1.424051e+00 3.333333e-02 0.000000e+00
1.455696e+00 3.333333e-02 0.000000e+00
1.487342e+00 3.333333e-02 0.000000e+00
1.518987e+00 3.333333e-02 0.000000e+00
1.550633e+00 3.333333e-02 0.000000e+00
1.582278e+00 3.333333e-02 0.000000e+00
1.613924e+00 3.333333e-02 0.000000e+00
1.645570e+00 3.333333e-02 0.000000e+00
1.677215e+00 3.333333e-02 0.000000e+00
1.708861e+00 3.333333e-02 0.000000e+00
1.740506e+00 3.333333e-02 0.000000e+00
1.772152e+00 3.333333e-02 0.000000e+00
1.803797e+00 3.333333e-02 0.000000e+00
1.835443e+00 3.333333e-02 0.000000e+00
1.867089e+00 3.333333e-02 0.000000e+00
1.898734e+00 3.333333e-02 0.000000e+00
1.930380e+00 3.333333e-02 0.000000e+00
1.962025e+00 3.333333e-02 0.000000e+00
1.993671e+00 3.333333e-02 0.000000e+00
2.025316e+00 3.333333e-02 0.000000e+00
2.056962e+00 3.333333e-02 0.000000e+00
2.088608e+00 3.333333e-02 0.000000e+00
2.120253e+00 3.333333e-02 0.000000e+00
2.151899e+00 3.333333e-02 0.000000e+00
2.183544e+00 3.333333e-02 0.000000e+00
2.215190e+00 3.333333e-02 0.000000e+00
2.246835e+00 3.333333e-02 0.000000e+00
2.278481e+00 3.333333e-02 0.000000e+00
2.310127e+00 3.333333e-02 0.000000e+00
2.341772e+00 3.333333e-02 0.000000e+00
2.373418e+00 3.333333e-02 0.000000e+00
2.405063e+00 3.333333e-02 0.000000e+00
2.436709e+00 3.333333e-02 0.000000e+00
2.468354e+00 3.333333e-02 0.000000e+00
2.500000e+00 3.333333e-02 0.000000e+00
2.531646e+00 3.333333e-02 0.000000e+00
2.563291e+00 3.333333e-02 0.000000e+00
2.594937e+00 3.333333e-02 0.000000e+00
2.626582e+00 3.333333e-02 0.000000e+00
2.658228e+00 3.333333e-02 0.000000e+00
2.689873e+00 3.333333e-02 0.000000e+00
2.721519e+00 3.333333e-02 0.000000e+00
2.753165e+00 3.333333e-02 0.000000e+00
2.784810e+00 3.333333e-02 0.000000e+00
2.816456e+00 3.333333e-02 0.000000e+00
2.848101e+00 3.333333e-02 0.000000e+00
2.879747e+00 3.333333e-02 0.000000e+00
[...]
<PointData>
<DataArray Name="Velocity" type="Float64" format="ascii" NumberOfComponents="3">
0.000000e+00 0.000000e+00 0
0.000000e+00 0.000000e+00 0
0.000000e+00 0.000000e+00 0
0.000000e+00 0.000000e+00 0
0.000000e+00 0.000000e+00 0
0.000000e+00 0.000000e+00 0
0.000000e+00 0.000000e+00 0
0.000000e+00 0.000000e+00 0
0.000000e+00 0.000000e+00 0
0.000000e+00 0.000000e+00 0
0.000000e+00 0.000000e+00 0
0.000000e+00 0.000000e+00 0
0.000000e+00 0.000000e+00 0
0.000000e+00 0.000000e+00 0
0.000000e+00 0.000000e+00 0
0.000000e+00 0.000000e+00 0
0.000000e+00 0.000000e+00 0
0.000000e+00 0.000000e+00 0
0.000000e+00 0.000000e+00 0
-2.068879e-17 0.000000e+00 0
0.000000e+00 0.000000e+00 0
0.000000e+00 0.000000e+00 0
0.000000e+00 0.000000e+00 0
-3.096293e-19 0.000000e+00 0
0.000000e+00 0.000000e+00 0
0.000000e+00 0.000000e+00 0
0.000000e+00 0.000000e+00 0
-8.800428e-18 0.000000e+00 0
0.000000e+00 0.000000e+00 0
0.000000e+00 0.000000e+00 0
0.000000e+00 0.000000e+00 0
3.339766e-18 0.000000e+00 0
0.000000e+00 0.000000e+00 0
0.000000e+00 0.000000e+00 0
0.000000e+00 0.000000e+00 0
0.000000e+00 0.000000e+00 0
0.000000e+00 0.000000e+00 0
0.000000e+00 0.000000e+00 0
9.575943e-19 0.000000e+00 0
0.000000e+00 0.000000e+00 0
0.000000e+00 0.000000e+00 0
0.000000e+00 0.000000e+00 0
0.000000e+00 0.000000e+00 0
0.000000e+00 0.000000e+00 0
0.000000e+00 0.000000e+00 0
0.000000e+00 0.000000e+00 0
-1.647522e-18 0.000000e+00 0
0.000000e+00 0.000000e+00 0
0.000000e+00 0.000000e+00 0
0.000000e+00 0.000000e+00 0
0.000000e+00 0.000000e+00 0
0.000000e+00 0.000000e+00 0
0.000000e+00 0.000000e+00 0
0.000000e+00 0.000000e+00 0
-3.601407e-18 0.000000e+00 0
0.000000e+00 0.000000e+00 0
0.000000e+00 0.000000e+00 0
0.000000e+00 0.000000e+00 0
0.000000e+00 0.000000e+00 0
0.000000e+00 0.000000e+00 0
0.000000e+00 0.000000e+00 0
0.000000e+00 0.000000e+00 0
6.502831e-18 0.000000e+00 0
0.000000e+00 0.000000e+00 0
0.000000e+00 0.000000e+00 0
0.000000e+00 0.000000e+00 0
0.000000e+00 0.000000e+00 0
0.000000e+00 0.000000e+00 0
0.000000e+00 0.000000e+00 0
0.000000e+00 0.000000e+00 0
0.000000e+00 0.000000e+00 0
0.000000e+00 0.000000e+00 0
0.000000e+00 0.000000e+00 0
0.000000e+00 0.000000e+00 0
0.000000e+00 0.000000e+00 0
0.000000e+00 0.000000e+00 0
0.000000e+00 0.000000e+00 0
0.000000e+00 0.000000e+00 0
0.000000e+00 0.000000e+00 0
0.000000e+00 0.000000e+00 0
0.000000e+00 0.000000e+00 0
0.000000e+00 0.000000e+00 0
0.000000e+00 0.000000e+00 0
0.000000e+00 0.000000e+00 0
0.000000e+00 0.000000e+00 0
0.000000e+00 0.000000e+00 0
0.000000e+00 0.000000e+00 0
0.000000e+00 0.000000e+00 0
0.000000e+00 0.000000e+00 0
0.000000e+00 0.000000e+00 0
0.000000e+00 0.000000e+00 0
0.000000e+00 0.000000e+00 0
0.000000e+00 0.000000e+00 0
0.000000e+00 0.000000e+00 0
0.000000e+00 0.000000e+00 0
0.000000e+00 0.000000e+00 0
0.000000e+00 0.000000e+00 0
0.000000e+00 0.000000e+00 0
0.000000e+00 0.000000e+00 0
0.000000e+00 0.000000e+00 0
0.000000e+00 0.000000e+00 0
0.000000e+00 0.000000e+00 0
0.000000e+00 0.000000e+00 0
0.000000e+00 0.000000e+00 0
0.000000e+00 0.000000e+00 0
0.000000e+00 0.000000e+00 0
0.000000e+00 0.000000e+00 0
0.000000e+00 0.000000e+00 0
0.000000e+00 0.000000e+00 0
0.000000e+00 0.000000e+00 0
0.000000e+00 0.000000e+00 0
0.000000e+00 0.000000e+00 0
0.000000e+00 0.000000e+00 0
0.000000e+00 0.000000e+00 0
0.000000e+00 0.000000e+00 0
0.000000e+00 0.000000e+00 0
0.000000e+00 0.000000e+00 0
0.000000e+00 0.000000e+00 0
0.000000e+00 0.000000e+00 0
0.000000e+00 0.000000e+00 0
0.000000e+00 0.000000e+00 0
0.000000e+00 0.000000e+00 0
0.000000e+00 0.000000e+00 0
0.000000e+00 0.000000e+00 0
0.000000e+00 0.000000e+00 0
0.000000e+00 0.000000e+00 0
0.000000e+00 0.000000e+00 0
0.000000e+00 0.000000e+00 0
0.000000e+00 0.000000e+00 0
0.000000e+00 0.000000e+00 0
0.000000e+00 0.000000e+00 0
0.000000e+00 0.000000e+00 0
0.000000e+00 0.000000e+00 0
0.000000e+00 0.000000e+00 0
0.000000e+00 0.000000e+00 0
0.000000e+00 0.000000e+00 0
0.000000e+00 0.000000e+00 0
0.000000e+00 0.000000e+00 0
0.000000e+00 0.000000e+00 0
0.000000e+00 0.000000e+00 0
0.000000e+00 0.000000e+00 0
0.000000e+00 0.000000e+00 0
0.000000e+00 0.000000e+00 0
0.000000e+00 0.000000e+00 0
0.000000e+00 0.000000e+00 0
0.000000e+00 0.000000e+00 0
0.000000e+00 0.000000e+00 0
0.000000e+00 0.000000e+00 0
0.000000e+00 0.000000e+00 0
0.000000e+00 0.000000e+00 0
0.000000e+00 0.000000e+00 0
0.000000e+00 0.000000e+00 0
0.000000e+00 0.000000e+00 0
0.000000e+00 0.000000e+00 0
0.000000e+00 0.000000e+00 0
0.000000e+00 0.000000e+00 0
0.000000e+00 0.000000e+00 0
0.000000e+00 0.000000e+00 0
0.000000e+00 0.000000e+00 0
7.872192e-01 -1.339625e-04 0
7.872192e-01 -1.398898e-04 0
7.873388e-01 -1.258083e-04 0
7.874252e-01 -6.929558e-05 0
7.874537e-01 1.187489e-05 0
7.874000e-01 1.141615e-04 0
7.872375e-01 2.450150e-04 0
7.869360e-01 4.094854e-04 0
7.864610e-01 6.125819e-04 0
7.857731e-01 8.599381e-04 0
7.848273e-01 1.158060e-03 0
7.835717e-01 1.514481e-03 0
7.819466e-01 1.937923e-03 0
7.798836e-01 2.438491e-03 0
7.773035e-01 3.027932e-03 0
7.741152e-01 3.719973e-03 0
7.702131e-01 4.530758e-03 0
7.654752e-01 5.479391e-03 0
7.597592e-01 6.588612e-03 0
7.528989e-01 7.885584e-03 0
7.446996e-01 9.402776e-03 0
7.349321e-01 1.117882e-02 0
7.233262e-01 1.325912e-02 0
7.095632e-01 1.569570e-02 0
6.932687e-01 1.854529e-02 0
6.740079e-01 2.186349e-02 0
6.512875e-01 2.569155e-02 0
6.245730e-01 3.002894e-02 0
5.933401e-01 3.478227e-02 0
5.571917e-01 3.967993e-02 0
5.160867e-01 4.415407e-02 0
4.707342e-01 4.724153e-02 0
4.231161e-01 4.767524e-02 0
3.767876e-01 4.447372e-02 0
3.359774e-01 3.797500e-02 0
3.030542e-01 2.968329e-02 0
2.784811e-01 2.108218e-02 0
2.617318e-01 1.258812e-02 0
2.522098e-01 5.533271e-04 0
2.487077e-01 -1.209195e-02 0
2.502218e-01 -1.872740e-02 0
2.550159e-01 -2.040896e-02 0
2.615696e-01 -1.947945e-02 0
2.688637e-01 -1.755287e-02 0
2.762855e-01 -1.545004e-02 0
2.834949e-01 -1.349863e-02 0
2.903180e-01 -1.178994e-02 0
2.966778e-01 -1.032243e-02 0
3.025521e-01 -9.067250e-03 0
3.079495e-01 -7.993654e-03 0
3.128954e-01 -7.076887e-03 0
3.174247e-01 -6.298740e-03 0
3.215767e-01 -5.645464e-03 0
3.253927e-01 -5.105060e-03 0
3.289134e-01 -4.665058e-03 0
3.321774e-01 -4.311300e-03 0
3.352194e-01 -4.027857e-03 0
3.380691e-01 -3.797827e-03 0
3.407507e-01 -3.604578e-03 0
3.432820e-01 -3.433023e-03 0
3.456758e-01 -3.270629e-03 0
3.479397e-01 -3.107832e-03 0
3.500781e-01 -2.937943e-03 0
3.520921e-01 -2.756898e-03 0
3.539809e-01 -2.563065e-03 0
3.557432e-01 -2.356842e-03 0
3.573779e-01 -2.140005e-03 0
3.588844e-01 -1.915274e-03 0
3.602629e-01 -1.686065e-03 0
3.615145e-01 -1.456313e-03 0
3.626412e-01 -1.230287e-03 0
3.636459e-01 -1.012341e-03 0
3.645323e-01 -8.066046e-04 0
3.653041e-01 -6.166191e-04 0
3.659637e-01 -4.461193e-04 0
3.665147e-01 -2.993267e-04 0
3.669612e-01 -1.801347e-04 0
3.673062e-01 -9.084142e-05 0
3.675503e-01 -2.538690e-05 0
3.676905e-01 4.516509e-05 0
3.677290e-01 1.524209e-04 0
3.676663e-01 3.043896e-04 0
3.674890e-01 5.009357e-04 0
3.671822e-01 7.402015e-04 0
3.667358e-01 1.012080e-03 0
3.661495e-01 1.300136e-03 0
3.654336e-01 1.586186e-03 0
3.646052e-01 1.853805e-03 0
3.636856e-01 2.089926e-03 0
3.626997e-01 2.286089e-03 0
3.616768e-01 2.441124e-03 0
3.606443e-01 2.561580e-03 0
3.596203e-01 2.654617e-03 0
3.586146e-01 2.714702e-03 0
3.576509e-01 2.716376e-03 0
3.567789e-01 2.610769e-03 0
3.560956e-01 2.308723e-03 0
3.557961e-01 1.645026e-03 0
3.561023e-01 5.085735e-04 0
3.570856e-01 -8.136068e-04 0
3.587792e-01 -1.963662e-03 0
3.612126e-01 -2.924370e-03 0
3.644185e-01 -3.794705e-03 0
3.684342e-01 -4.651039e-03 0
3.732967e-01 -5.530907e-03 0
3.790396e-01 -6.445962e-03 0
3.856911e-01 -7.394741e-03 0
3.932729e-01 -8.369380e-03 0
4.017982e-01 -9.357916e-03 0
4.112686e-01 -1.034478e-02 0
4.216709e-01 -1.131113e-02 0
4.329742e-01 -1.223580e-02 0
4.451283e-01 -1.309665e-02 0
4.580638e-01 -1.387231e-02 0
4.716930e-01 -1.454383e-02 0
4.859134e-01 -1.509593e-02 0
5.006112e-01 -1.551787e-02 0
5.156660e-01 -1.580382e-02 0
5.309546e-01 -1.595269e-02 0
5.463558e-01 -1.596772e-02 0
5.617533e-01 -1.585573e-02 0
5.770387e-01 -1.562640e-02 0
5.921135e-01 -1.529134e-02 0
6.068905e-01 -1.486336e-02 0
6.212943e-01 -1.435580e-02 0
6.352614e-01 -1.378191e-02 0
6.487401e-01 -1.315448e-02 0
6.616895e-01 -1.248545e-02 0
6.740790e-01 -1.178576e-02 0
6.858868e-01 -1.106521e-02 0
6.970995e-01 -1.033245e-02 0
7.077106e-01 -9.594943e-03 0
7.177195e-01 -8.859116e-03 0
7.271307e-01 -8.130393e-03 0
7.359530e-01 -7.413346e-03 0
7.441984e-01 -6.711824e-03 0
7.518822e-01 -6.029096e-03 0
7.590215e-01 -5.368005e-03 0
7.656357e-01 -4.731114e-03 0
7.717456e-01 -4.120862e-03 0
7.773735e-01 -3.539713e-03 0
7.825431e-01 -2.990297e-03 0
7.872790e-01 -2.475544e-03 0
7.916073e-01 -1.998799e-03 0
7.955555e-01 -1.563883e-03 0
7.991521e-01 -1.175095e-03 0
8.024270e-01 -8.370759e-04 0
8.054110e-01 -5.544391e-04 0
8.081354e-01 -3.310016e-04 0
8.106303e-01 -1.682683e-04 0
8.129233e-01 -6.249284e-05 0
8.150369e-01 7.551812e-07 0
8.169888e-01 4.200065e-05 0
8.187946e-01 7.293880e-05 0
8.204681e-01 9.352759e-05 0
8.220239e-01 9.157023e-05 0
8.234797e-01 4.293770e-05 0
8.248494e-01 -5.505108e-04 0
8.248494e-01 -1.104499e-03 0
1.097566e+00 -2.660659e-04 0
1.097566e+00 -2.589424e-04 0
1.097675e+00 -2.169220e-04 0
1.097758e+00 -1.210011e-04 0
1.097801e+00 2.650396e-05 0
1.097777e+00 2.276415e-04 0
1.097661e+00 4.887862e-04 0
1.097429e+00 8.180076e-04 0
1.097049e+00 1.224921e-03 0
1.096487e+00 1.720815e-03 0
1.095706e+00 2.318846e-03 0
1.094659e+00 3.034276e-03 0
1.093296e+00 3.884768e-03 0
1.091556e+00 4.890779e-03 0
1.089371e+00 6.076093e-03 0
1.086661e+00 7.468505e-03 0
1.083335e+00 9.100723e-03 0
1.079287e+00 1.101150e-02 0
1.074393e+00 1.324706e-02 0
1.068509e+00 1.586275e-02 0
1.061463e+00 1.892500e-02 0
1.053056e+00 2.251332e-02 0
1.043047e+00 2.672201e-02 0
1.031151e+00 3.166064e-02 0
1.017023e+00 3.745150e-02 0
1.000251e+00 4.422014e-02 0
9.803391e-01 5.207152e-02 0
9.567032e-01 6.103792e-02 0
9.286764e-01 7.097499e-02 0
8.955676e-01 8.137361e-02 0
8.568457e-01 9.106851e-02 0
8.126107e-01 9.792906e-02 0
7.645707e-01 9.895713e-02 0
7.173439e-01 9.178619e-02 0
6.776138e-01 7.766593e-02 0
6.472423e-01 6.056281e-02 0
6.252670e-01 4.352627e-02 0
6.100424e-01 2.767244e-02 0
5.996002e-01 1.371883e-02 0
5.887182e-01 2.094135e-03 0
5.782297e-01 -6.644513e-03 0
5.696817e-01 -1.195291e-02 0
5.635130e-01 -1.458626e-02 0
5.594877e-01 -1.550060e-02 0
5.571275e-01 -1.541140e-02 0
5.559553e-01 -1.478083e-02 0
5.555856e-01 -1.388591e-02 0
5.557349e-01 -1.288646e-02 0
5.562048e-01 -1.187269e-02 0
5.568594e-01 -1.089483e-02 0
5.576059e-01 -9.980418e-03 0
5.583804e-01 -9.144120e-03 0
5.591380e-01 -8.392760e-03 0
5.598464e-01 -7.727782e-03 0
5.604826e-01 -7.146372e-03 0
5.610306e-01 -6.642139e-03 0
5.614808e-01 -6.205809e-03 0
5.618291e-01 -5.826098e-03 0
5.620759e-01 -5.490735e-03 0
5.622257e-01 -5.187571e-03 0
5.622851e-01 -4.905899e-03 0
5.622633e-01 -4.636940e-03 0
5.621710e-01 -4.373643e-03 0
5.620186e-01 -4.110748e-03 0
5.618153e-01 -3.845587e-03 0
5.615712e-01 -3.577894e-03 0
5.612966e-01 -3.308466e-03 0
5.610009e-01 -3.038648e-03 0
5.606926e-01 -2.770142e-03 0
5.603787e-01 -2.504882e-03 0
5.600647e-01 -2.244827e-03 0
5.597547e-01 -1.991667e-03 0
5.594510e-01 -1.746326e-03 0
5.591551e-01 -1.507421e-03 0
5.588699e-01 -1.274926e-03 0
5.585923e-01 -1.050504e-03 0
5.583155e-01 -8.334145e-04 0
5.580300e-01 -6.201531e-04 0
5.577260e-01 -4.044742e-04 0
5.573976e-01 -1.879875e-04 0
5.570547e-01 2.582552e-05 0
5.567108e-01 2.530968e-04 0
5.563782e-01 5.101999e-04 0
5.560711e-01 7.937596e-04 0
5.558062e-01 1.088068e-03 0
5.556061e-01 1.371930e-03 0
5.554978e-01 1.627049e-03 0
5.555040e-01 1.841551e-03 0
5.556388e-01 2.007391e-03 0
5.559102e-01 2.116219e-03 0
5.563398e-01 2.165386e-03 0
5.569609e-01 2.166553e-03 0
5.578216e-01 2.138297e-03 0
5.589979e-01 2.074794e-03 0
5.605570e-01 1.933966e-03 0
5.625436e-01 1.638623e-03 0
5.649949e-01 1.035534e-03 0
5.679021e-01 -6.786152e-06 0
5.711312e-01 -1.357954e-03 0
5.745312e-01 -2.819314e-03 0
5.782149e-01 -4.346731e-03 0
5.823551e-01 -5.939747e-03 0
5.870783e-01 -7.606441e-03 0
5.924667e-01 -9.351302e-03 0
5.985767e-01 -1.117061e-02 0
6.054512e-01 -1.305507e-02 0
6.131237e-01 -1.499216e-02 0
6.216178e-01 -1.696589e-02 0
6.309441e-01 -1.895512e-02 0
6.410980e-01 -2.093215e-02 0
6.520575e-01 -2.286283e-02 0
6.637827e-01 -2.470820e-02 0
6.762163e-01 -2.642741e-02 0
6.892852e-01 -2.798110e-02 0
7.029037e-01 -2.933456e-02 0
7.169764e-01 -3.046021e-02 0
7.314020e-01 -3.133908e-02 0
7.460768e-01 -3.196143e-02 0
7.608984e-01 -3.232637e-02 0
7.757683e-01 -3.244100e-02 0
7.905941e-01 -3.231900e-02 0
8.052917e-01 -3.197912e-02 0
8.197863e-01 -3.144362e-02 0
8.340128e-01 -3.073679e-02 0
8.479164e-01 -2.988374e-02 0
8.614521e-01 -2.890931e-02 0
8.745841e-01 -2.783732e-02 0
8.872855e-01 -2.668999e-02 0
8.995374e-01 -2.548755e-02 0
9.113276e-01 -2.424811e-02 0
9.226503e-01 -2.298752e-02 0
9.335048e-01 -2.171947e-02 0
9.438946e-01 -2.045561e-02 0
9.538270e-01 -1.920568e-02 0
9.633123e-01 -1.797778e-02 0
9.723630e-01 -1.677854e-02 0
9.809932e-01 -1.561342e-02 0
9.892184e-01 -1.448685e-02 0
9.970551e-01 -1.340256e-02 0
1.004520e+00 -1.236371e-02 0
1.011630e+00 -1.137316e-02 0
1.018403e+00 -1.043356e-02 0
1.024854e+00 -9.547555e-03 0
1.031000e+00 -8.717806e-03 0
1.036856e+00 -7.947033e-03 0
1.042436e+00 -7.237885e-03 0
1.047751e+00 -6.592651e-03 0
1.052810e+00 -6.012704e-03 0
1.057622e+00 -5.497525e-03 0
1.062189e+00 -5.043254e-03 0
1.066514e+00 -4.641554e-03 0
1.070597e+00 -4.282269e-03 0
1.074447e+00 -3.958063e-03 0
1.078080e+00 -3.664803e-03 0
1.081508e+00 -3.401499e-03 0
1.084742e+00 -3.172204e-03 0
1.087777e+00 -2.976211e-03 0
1.090586e+00 -2.982497e-03 0
1.090586e+00 -3.079492e-03 0
1.218714e+00 -4.038258e-04 0
1.218714e+00 -3.889328e-04 0
1.218840e+00 -3.277296e-04 0
1.218946e+00 -2.018503e-04 0
1.219024e+00 -7.571187e-06 0
1.219058e+00 2.607533e-04 0
1.219032e+00 6.114303e-04 0
1.218927e+00 1.054866e-03 0
1.218723e+00 1.604006e-03 0
1.218395e+00 2.274272e-03 0
1.217917e+00 3.083708e-03 0
1.217256e+00 4.053238e-03 0
1.216376e+00 5.207045e-03 0
1.215234e+00 6.573094e-03 0
1.213783e+00 8.183839e-03 0
1.211966e+00 1.007717e-02 0
1.209720e+00 1.229768e-02 0
1.206971e+00 1.489823e-02 0
1.203635e+00 1.794204e-02 0
1.199614e+00 2.150520e-02 0
1.194792e+00 2.567976e-02 0
1.189032e+00 3.057729e-02 0
1.182172e+00 3.633274e-02 0
1.174011e+00 4.310793e-02 0
1.164302e+00 5.109320e-02 0
1.152725e+00 6.050361e-02 0
1.138858e+00 7.156143e-02 0
1.122124e+00 8.444699e-02 0
1.101702e+00 9.917854e-02 0
1.076421e+00 1.153416e-01 0
1.044687e+00 1.315353e-01 0
1.004778e+00 1.444379e-01 0
9.565005e-01 1.480229e-01 0
9.062296e-01 1.360683e-01 0
8.700311e-01 1.118154e-01 0
8.470943e-01 8.482191e-02 0
8.328773e-01 6.026613e-02 0
8.236772e-01 3.962383e-02 0
8.168085e-01 2.301490e-02 0
8.109774e-01 1.041841e-02 0
8.051908e-01 1.324367e-03 0
7.995515e-01 -4.907308e-03 0
7.944493e-01 -8.741746e-03 0
7.900392e-01 -1.082678e-02 0
7.863138e-01 -1.172914e-02 0
7.831837e-01 -1.187441e-02 0
7.805350e-01 -1.155771e-02 0
7.782578e-01 -1.097467e-02 0
7.762574e-01 -1.025170e-02 0
7.744559e-01 -9.469422e-03 0
7.727911e-01 -8.678963e-03 0
7.712130e-01 -7.912464e-03 0
7.696819e-01 -7.189568e-03 0
7.681661e-01 -6.521281e-03 0
7.666402e-01 -5.912319e-03 0
7.650847e-01 -5.362673e-03 0
7.634855e-01 -4.868795e-03 0
7.618333e-01 -4.424608e-03 0
7.601236e-01 -4.022319e-03 0
7.583556e-01 -3.653207e-03 0
7.565296e-01 -3.310125e-03 0
7.546521e-01 -2.987566e-03 0
7.527316e-01 -2.680092e-03 0
7.507782e-01 -2.382119e-03 0
7.488059e-01 -2.091682e-03 0
7.468274e-01 -1.810373e-03 0
7.448546e-01 -1.539202e-03 0
7.428983e-01 -1.278992e-03 0
7.409684e-01 -1.030540e-03 0
7.390741e-01 -7.948181e-04 0
7.372240e-01 -5.728888e-04 0
7.354254e-01 -3.657917e-04 0
7.336851e-01 -1.748851e-04 0
7.320091e-01 -4.359537e-06 0
7.304024e-01 1.467770e-04 0
7.288687e-01 2.847641e-04 0
7.274096e-01 4.122573e-04 0
7.260279e-01 5.301994e-04 0
7.247334e-01 6.408980e-04 0
7.235402e-01 7.523507e-04 0
7.224532e-01 8.759837e-04 0
7.214753e-01 1.017179e-03 0
7.206224e-01 1.174890e-03 0
7.199119e-01 1.342813e-03 0
7.193575e-01 1.501996e-03 0
7.189868e-01 1.625098e-03 0
7.188478e-01 1.693901e-03 0
7.189921e-01 1.705480e-03 0
7.194824e-01 1.662215e-03 0
7.203971e-01 1.547858e-03 0
7.217827e-01 1.334487e-03 0
7.236622e-01 1.000802e-03 0
7.260667e-01 5.091652e-04 0
7.290371e-01 -1.664292e-04 0
7.326118e-01 -1.018287e-03 0
7.368241e-01 -2.063679e-03 0
7.416737e-01 -3.335495e-03 0
7.470662e-01 -4.818339e-03 0
7.528740e-01 -6.473901e-03 0
7.591122e-01 -8.275020e-03 0
7.658262e-01 -1.020466e-02 0
7.730601e-01 -1.226027e-02 0
7.808496e-01 -1.444543e-02 0
7.892213e-01 -1.676256e-02 0
7.981935e-01 -1.920779e-02 0
8.077765e-01 -2.176870e-02 0
8.179698e-01 -2.442338e-02 0
8.287589e-01 -2.713998e-02 0
8.401143e-01 -2.987691e-02 0
8.519907e-01 -3.258413e-02 0
8.643293e-01 -3.520561e-02 0
8.770603e-01 -3.768291e-02 0
8.901067e-01 -3.995915e-02 0
9.033870e-01 -4.198295e-02 0
9.168188e-01 -4.371173e-02 0
9.303213e-01 -4.511392e-02 0
9.438172e-01 -4.617016e-02 0
9.572346e-01 -4.687330e-02 0
9.705079e-01 -4.722756e-02 0
9.835784e-01 -4.724700e-02 0
9.963955e-01 -4.695365e-02 0
1.008916e+00 -4.637543e-02 0
1.021104e+00 -4.554415e-02 0
1.032931e+00 -4.449366e-02 0
1.044377e+00 -4.325832e-02 0
1.055425e+00 -4.187170e-02 0
1.066067e+00 -4.036562e-02 0
1.076298e+00 -3.876952e-02 0
1.086118e+00 -3.711003e-02 0
1.095531e+00 -3.541075e-02 0
1.104543e+00 -3.369223e-02 0
1.113163e+00 -3.197209e-02 0
1.121404e+00 -3.026515e-02 0
1.129277e+00 -2.858371e-02 0
1.136796e+00 -2.693782e-02 0
1.143976e+00 -2.533558e-02 0
1.150832e+00 -2.378342e-02 0
1.157379e+00 -2.228644e-02 0
1.163631e+00 -2.084865e-02 0
1.169605e+00 -1.947323e-02 0
1.175313e+00 -1.816275e-02 0
1.180769e+00 -1.691936e-02 0
1.185987e+00 -1.574493e-02 0
1.190978e+00 -1.464109e-02 0
1.195753e+00 -1.360921e-02 0
1.200322e+00 -1.265033e-02 0
1.204692e+00 -1.176485e-02 0
1.208871e+00 -1.095213e-02 0
1.212863e+00 -1.021003e-02 0
1.216672e+00 -9.534339e-03 0
1.220303e+00 -8.918772e-03 0
1.223764e+00 -8.356096e-03 0
1.227064e+00 -7.839748e-03 0
1.230210e+00 -7.364179e-03 0
1.233211e+00 -6.924138e-03 0
1.236070e+00 -6.512318e-03 0
1.238780e+00 -6.112954e-03 0
1.241336e+00 -5.667442e-03 0
1.241336e+00 -5.421278e-03 0
1.276990e+00 -5.533738e-04 0
1.276990e+00 -5.343947e-04 0
1.277134e+00 -4.613171e-04 0
1.277265e+00 -3.155684e-04 0
1.277378e+00 -9.119126e-05 0
1.277463e+00 2.196849e-04 0
1.277511e+00 6.270712e-04 0
1.277509e+00 1.143682e-03 0
1.277444e+00 1.785038e-03 0
1.277298e+00 2.569574e-03 0
1.277052e+00 3.518800e-03 0
1.276684e+00 4.657561e-03 0
1.276168e+00 6.014421e-03 0
1.275474e+00 7.622217e-03 0
1.274569e+00 9.518820e-03 0
1.273416e+00 1.174819e-02 0
1.271971e+00 1.436178e-02 0
1.270188e+00 1.742041e-02 0
1.268015e+00 2.099668e-02 0
1.265393e+00 2.517810e-02 0
1.262255e+00 3.007111e-02 0
1.258526e+00 3.580609e-02 0
1.254115e+00 4.254386e-02 0
1.248916e+00 5.048369e-02 0
1.242788e+00 5.987333e-02 0
1.235541e+00 7.102061e-02 0
1.226887e+00 8.430452e-02 0
1.216358e+00 1.001762e-01 0
1.203129e+00 1.191157e-01 0
1.185658e+00 1.414286e-01 0
1.161011e+00 1.665324e-01 0
1.123863e+00 1.908194e-01 0
1.066821e+00 2.027612e-01 0
9.950940e-01 1.828673e-01 0
9.623077e-01 1.399551e-01 0
9.508676e-01 9.969823e-02 0
9.478123e-01 6.819229e-02 0
9.472210e-01 4.459820e-02 0
9.466891e-01 2.709604e-02 0
9.454673e-01 1.433155e-02 0
9.436144e-01 5.390733e-03 0
9.410159e-01 -6.385649e-04 0
9.379876e-01 -4.566568e-03 0
9.348662e-01 -6.931102e-03 0
9.318611e-01 -8.190256e-03 0
9.290734e-01 -8.693810e-03 0
9.265333e-01 -8.697214e-03 0
9.242309e-01 -8.380599e-03 0
9.221361e-01 -7.867962e-03 0
9.202103e-01 -7.243563e-03 0
9.184136e-01 -6.564431e-03 0
9.167078e-01 -5.869085e-03 0
9.150590e-01 -5.183290e-03 0
9.134382e-01 -4.523765e-03 0
9.118210e-01 -3.900631e-03 0
9.101883e-01 -3.319118e-03 0
9.085260e-01 -2.780854e-03 0
9.068249e-01 -2.284797e-03 0
9.050814e-01 -1.827508e-03 0
9.032983e-01 -1.401797e-03 0
9.014887e-01 -1.004749e-03 0
8.996586e-01 -6.362585e-04 0