<?xml version="1.0"?>
<VTKFile type="StructuredGrid">
<StructuredGrid WholeExtent="0 158 0 30 0 0 ">
<Piece Extent="0 158 0 30 0 0 ">
<Points>
<DataArray type="Float64" format="ascii" NumberOfComponents="3">
0.000000e+00 0.000000e+00 0.000000e+00
3.164557e-02 0.000000e+00 0.000000e+00
6.329114e-02 0.000000e+00 0.000000e+00
9.493671e-02 0.000000e+00 0.000000e+00
1.265823e-01 0.000000e+00 0.000000e+00
1.582278e-01 0.000000e+00 0.000000e+00
1.898734e-01 0.000000e+00 0.000000e+00
2.215190e-01 0.000000e+00 0.000000e+00
2.531646e-01 0.000000e+00 0.000000e+00
2.848101e-01 0.000000e+00 0.000000e+00
3.164557e-01 0.000000e+00 0.000000e+00
3.481013e-01 0.000000e+00 0.000000e+00
3.797468e-01 0.000000e+00 0.000000e+00
4.113924e-01 0.000000e+00 0.000000e+00
4.430380e-01 0.000000e+00 0.000000e+00
4.746835e-01 0.000000e+00 0.000000e+00
5.063291e-01 0.000000e+00 0.000000e+00
5.379747e-01 0.000000e+00 0.000000e+00
5.696203e-01 0.000000e+00 0.000000e+00
6.012658e-01 0.000000e+00 0.000000e+00
6.329114e-01 0.000000e+00 0.000000e+00
6.645570e-01 0.000000e+00 0.000000e+00
6.962025e-01 0.000000e+00 0.000000e+00
7.278481e-01 0.000000e+00 0.000000e+00
7.594937e-01 0.000000e+00 0.000000e+00
7.911392e-01 0.000000e+00 0.000000e+00
8.227848e-01 0.000000e+00 0.000000e+00
8.544304e-01 0.000000e+00 0.000000e+00
8.860759e-01 0.000000e+00 0.000000e+00
9.177215e-01 0.000000e+00 0.000000e+00
9.493671e-01 0.000000e+00 0.000000e+00
9.810127e-01 0.000000e+00 0.000000e+00
1.012658e+00 0.000000e+00 0.000000e+00
1.044304e+00 0.000000e+00 0.000000e+00
1.075949e+00 0.000000e+00 0.000000e+00
1.107595e+00 0.000000e+00 0.000000e+00
1.139241e+00 0.000000e+00 0.000000e+00
1.170886e+00 0.000000e+00 0.000000e+00
1.202532e+00 0.000000e+00 0.000000e+00
1.234177e+00 0.000000e+00 0.000000e+00
1.265823e+00 0.000000e+00 0.000000e+00
1.297468e+00 0.000000e+00 0.000000e+00
1.329114e+00 0.000000e+00 0.000000e+00
1.360759e+00 0.000000e+00 0.000000e+00
1.392405e+00 0.000000e+00 0.000000e+00
1.424051e+00 0.000000e+00 0.000000e+00
1.455696e+00 0.000000e+00 0.000000e+00
1.487342e+00 0.000000e+00 0.000000e+00
1.518987e+00 0.000000e+00 0.000000e+00
1.550633e+00 0.000000e+00 0.000000e+00
1.582278e+00 0.000000e+00 0.000000e+00
1.613924e+00 0.000000e+00 0.000000e+00
1.645570e+00 0.000000e+00 0.000000e+00
1.677215e+00 0.000000e+00 0.000000e+00
1.708861e+00 0.000000e+00 0.000000e+00
1.740506e+00 0.000000e+00 0.000000e+00
1.772152e+00 0.000000e+00 0.000000e+00
1.803797e+00 0.000000e+00 0.000000e+00
1.835443e+00 0.000000e+00 0.000000e+00
1.867089e+00 0.000000e+00 0.000000e+00
1.898734e+00 0.000000e+00 0.000000e+00
1.930380e+00 0.000000e+00 0.000000e+00
1.962025e+00 0.000000e+00 0.000000e+00
1.993671e+00 0.000000e+00 0.000000e+00
2.025316e+00 0.000000e+00 0.000000e+00
2.056962e+00 0.000000e+00 0.000000e+00
2.088608e+00 0.000000e+00 0.000000e+00
2.120253e+00 0.000000e+00 0.000000e+00
2.151899e+00 0.000000e+00 0.000000e+00
2.183544e+00 0.000000e+00 0.000000e+00
2.215190e+00 0.000000e+00 0.000000e+00
2.246835e+00 0.000000e+00 0.000000e+00
2.278481e+00 0.000000e+00 0.000000e+00
2.310127e+00 0.000000e+00 0.000000e+00
2.341772e+00 0.000000e+00 0.000000e+00
2.373418e+00 0.000000e+00 0.000000e+00
2.405063e+00 0.000000e+00 0.000000e+00
2.436709e+00 0.000000e+00 0.000000e+00
2.468354e+00 0.000000e+00 0.000000e+00
2.500000e+00 0.000000e+00 0.000000e+00
2.531646e+00 0.000000e+00 0.000000e+00
2.563291e+00 0.000000e+00 0.000000e+00
2.594937e+00 0.000000e+00 0.000000e+00
2.626582e+00 0.000000e+00 0.000000e+00
2.658228e+00 0.000000e+00 0.000000e+00
2.689873e+00 0.000000e+00 0.000000e+00
2.721519e+00 0.000000e+00 0.000000e+00
2.753165e+00 0.000000e+00 0.000000e+00
2.784810e+00 0.000000e+00 0.000000e+00
2.816456e+00 0.000000e+00 0.000000e+00
2.848101e+00 0.000000e+00 0.000000e+00
2.879747e+00 0.000000e+00 0.000000e+00
2.911392e+00 0.000000e+00 0.000000e+00
2.943038e+00 0.000000e+00 0.000000e+00
2.974684e+00 0.000000e+00 0.000000e+00
3.006329e+00 0.000000e+00 0.000000e+00
3.037975e+00 0.000000e+00 0.000000e+00
3.069620e+00 0.000000e+00 0.000000e+00
3.101266e+00 0.000000e+00 0.000000e+00
3.132911e+00 0.000000e+00 0.000000e+00
3.164557e+00 0.000000e+00 0.000000e+00
3.196203e+00 0.000000e+00 0.000000e+00
3.227848e+00 0.000000e+00 0.000000e+00
3.259494e+00 0.000000e+00 0.000000e+00
3.291139e+00 0.000000e+00 0.000000e+00
3.322785e+00 0.000000e+00 0.000000e+00
3.354430e+00 0.000000e+00 0.000000e+00
3.386076e+00 0.000000e+00 0.000000e+00
3.417722e+00 0.000000e+00 0.000000e+00
3.449367e+00 0.000000e+00 0.000000e+00
3.481013e+00 0.000000e+00 0.000000e+00
3.512658e+00 0.000000e+00 0.000000e+00
3.544304e+00 0.000000e+00 0.000000e+00
3.575949e+00 0.000000e+00 0.000000e+00
3.607595e+00 0.000000e+00 0.000000e+00
3.639241e+00 0.000000e+00 0.000000e+00
3.670886e+00 0.000000e+00 0.000000e+00
3.702532e+00 0.000000e+00 0.000000e+00
3.734177e+00 0.000000e+00 0.000000e+00
3.765823e+00 0.000000e+00 0.000000e+00
3.797468e+00 0.000000e+00 0.000000e+00
3.829114e+00 0.000000e+00 0.000000e+00
3.860759e+00 0.000000e+00 0.000000e+00
3.892405e+00 0.000000e+00 0.000000e+00
3.924051e+00 0.000000e+00 0.000000e+00
3.955696e+00 0.000000e+00 0.000000e+00
3.987342e+00 0.000000e+00 0.000000e+00
4.018987e+00 0.000000e+00 0.000000e+00
4.050633e+00 0.000000e+00 0.000000e+00
4.082278e+00 0.000000e+00 0.000000e+00
4.113924e+00 0.000000e+00 0.000000e+00
4.145570e+00 0.000000e+00 0.000000e+00
4.177215e+00 0.000000e+00 0.000000e+00
4.208861e+00 0.000000e+00 0.000000e+00
4.240506e+00 0.000000e+00 0.000000e+00
4.272152e+00 0.000000e+00 0.000000e+00
4.303797e+00 0.000000e+00 0.000000e+00
4.335443e+00 0.000000e+00 0.000000e+00
4.367089e+00 0.000000e+00 0.000000e+00
4.398734e+00 0.000000e+00 0.000000e+00
4.430380e+00 0.000000e+00 0.000000e+00
4.462025e+00 0.000000e+00 0.000000e+00
4.493671e+00 0.000000e+00 0.000000e+00
4.525316e+00 0.000000e+00 0.000000e+00
4.556962e+00 0.000000e+00 0.000000e+00
4.588608e+00 0.000000e+00 0.000000e+00
4.620253e+00 0.000000e+00 0.000000e+00
4.651899e+00 0.000000e+00 0.000000e+00
4.683544e+00 0.000000e+00 0.000000e+00
4.715190e+00 0.000000e+00 0.000000e+00
4.746835e+00 0.000000e+00 0.000000e+00
4.778481e+00 0.000000e+00 0.000000e+00
4.810127e+00 0.000000e+00 0.000000e+00
4.841772e+00 0.000000e+00 0.000000e+00
4.873418e+00 0.000000e+00 0.000000e+00
4.905063e+00 0.000000e+00 0.000000e+00
4.936709e+00 0.000000e+00 0.000000e+00
4.968354e+00 0.000000e+00 0.000000e+00
5.000000e+00 0.000000e+00 0.000000e+00
0.000000e+00 3.333333e-02 0.000000e+00
3.164557e-02 3.333333e-02 0.000000e+00
6.329114e-02 3.333333e-02 0.000000e+00
9.493671e-02 3.333333e-02 0.000000e+00
1.265823e-01 3.333333e-02 0.000000e+00
1.582278e-01 3.333333e-02 0.000000e+00
1.898734e-01 3.333333e-02 0.000000e+00
2.215190e-01 3.333333e-02 0.000000e+00
2.531646e-01 3.333333e-02 0.000000e+00
2.848101e-01 3.333333e-02 0.000000e+00
3.164557e-01 3.333333e-02 0.000000e+00
3.481013e-01 3.333333e-02 0.000000e+00
3.797468e-01 3.333333e-02 0.000000e+00
4.113924e-01 3.333333e-02 0.000000e+00
4.430380e-01 3.333333e-02 0.000000e+00
4.746835e-01 3.333333e-02 0.000000e+00
5.063291e-01 3.333333e-02 0.000000e+00
5.379747e-01 3.333333e-02 0.000000e+00
5.696203e-01 3.333333e-02 0.000000e+00
6.012658e-01 3.333333e-02 0.000000e+00
6.329114e-01 3.333333e-02 0.000000e+00
6.645570e-01 3.333333e-02 0.000000e+00
6.962025e-01 3.333333e-02 0.000000e+00
7.278481e-01 3.333333e-02 0.000000e+00
7.594937e-01 3.333333e-02 0.000000e+00
7.911392e-01 3.333333e-02 0.000000e+00
8.227848e-01 3.333333e-02 0.000000e+00
8.544304e-01 3.333333e-02 0.000000e+00
8.860759e-01 3.333333e-02 0.000000e+00
9.177215e-01 3.333333e-02 0.000000e+00
9.493671e-01 3.333333e-02 0.000000e+00
9.810127e-01 3.333333e-02 0.000000e+00
1.012658e+00 3.333333e-02 0.000000e+00
1.044304e+00 3.333333e-02 0.000000e+00
1.075949e+00 3.333333e-02 0.000000e+00
1.107595e+00 3.333333e-02 0.000000e+00
1.139241e+00 3.333333e-02 0.000000e+00
1.170886e+00 3.333333e-02 0.000000e+00
1.202532e+00 3.333333e-02 0.000000e+00
1.234177e+00 3.333333e-02 0.000000e+00
1.265823e+00 3.333333e-02 0.000000e+00
1.297468e+00 3.333333e-02 0.000000e+00
1.329114e+00 3.333333e-02 0.000000e+00
1.360759e+00 3.333333e-02 0.000000e+00
1.392405e+00 3.333333e-02 0.000000e+00
1.424051e+00 3.333333e-02 0.000000e+00
1.455696e+00 3.333333e-02 0.000000e+00
1.487342e+00 3.333333e-02 0.000000e+00
1.518987e+00 3.333333e-02 0.000000e+00
1.550633e+00 3.333333e-02 0.000000e+00
1.582278e+00 3.333333e-02 0.000000e+00
1.613924e+00 3.333333e-02 0.000000e+00
1.645570e+00 3.333333e-02 0.000000e+00
1.677215e+00 3.333333e-02 0.000000e+00
1.708861e+00 3.333333e-02 0.000000e+00
1.740506e+00 3.333333e-02 0.000000e+00
1.772152e+00 3.333333e-02 0.000000e+00
1.803797e+00 3.333333e-02 0.000000e+00
1.835443e+00 3.333333e-02 0.000000e+00
1.867089e+00 3.333333e-02 0.000000e+00
1.898734e+00 3.333333e-02 0.000000e+00
1.930380e+00 3.333333e-02 0.000000e+00
1.962025e+00 3.333333e-02 0.000000e+00
1.993671e+00 3.333333e-02 0.000000e+00
2.025316e+00 3.333333e-02 0.000000e+00
2.056962e+00 3.333333e-02 0.000000e+00
2.088608e+00 3.333333e-02 0.000000e+00
2.120253e+00 3.333333e-02 0.000000e+00
2.151899e+00 3.333333e-02 0.000000e+00
2.183544e+00 3.333333e-02 0.000000e+00
2.215190e+00 3.333333e-02 0.000000e+00
2.246835e+00 3.333333e-02 0.000000e+00
2.278481e+00 3.333333e-02 0.000000e+00
2.310127e+00 3.333333e-02 0.000000e+00
2.341772e+00 3.333333e-02 0.000000e+00
2.373418e+00 3.333333e-02 0.000000e+00
2.405063e+00 3.333333e-02 0.000000e+00
2.436709e+00 3.333333e-02 0.000000e+00
2.468354e+00 3.333333e-02 0.000000e+00
2.500000e+00 3.333333e-02 0.000000e+00
2.531646e+00 3.333333e-02 0.000000e+00
2.563291e+00 3.333333e-02 0.000000e+00
2.594937e+00 3.333333e-02 0.000000e+00
2.626582e+00 3.333333e-02 0.000000e+00
2.658228e+00 3.333333e-02 0.000000e+00
2.689873e+00 3.333333e-02 0.000000e+00
2.721519e+00 3.333333e-02 0.000000e+00
2.753165e+00 3.333333e-02 0.000000e+00
2.784810e+00 3.333333e-02 0.000000e+00
2.816456e+00 3.333333e-02 0.000000e+00
2.848101e+00 3.333333e-02 0.000000e+00
2.879747e+00 3.333333e-02 0.000000e+00
[...]
<PointData>
<DataArray Name="Velocity" type="Float64" format="ascii" NumberOfComponents="3">
0.000000e+00 0.000000e+00 0
0.000000e+00 0.000000e+00 0
0.000000e+00 0.000000e+00 0
0.000000e+00 0.000000e+00 0
0.000000e+00 0.000000e+00 0
0.000000e+00 0.000000e+00 0
0.000000e+00 0.000000e+00 0
0.000000e+00 0.000000e+00 0
0.000000e+00 0.000000e+00 0
0.000000e+00 0.000000e+00 0
0.000000e+00 0.000000e+00 0
0.000000e+00 0.000000e+00 0
0.000000e+00 0.000000e+00 0
0.000000e+00 0.000000e+00 0
0.000000e+00 0.000000e+00 0
0.000000e+00 0.000000e+00 0
0.000000e+00 0.000000e+00 0
0.000000e+00 0.000000e+00 0
0.000000e+00 0.000000e+00 0
2.365899e-17 0.000000e+00 0
0.000000e+00 0.000000e+00 0
0.000000e+00 0.000000e+00 0
0.000000e+00 0.000000e+00 0
1.202929e-17 0.000000e+00 0
0.000000e+00 0.000000e+00 0
0.000000e+00 0.000000e+00 0
0.000000e+00 0.000000e+00 0
-5.551335e-18 0.000000e+00 0
0.000000e+00 0.000000e+00 0
0.000000e+00 0.000000e+00 0
0.000000e+00 0.000000e+00 0
1.636635e-18 0.000000e+00 0
0.000000e+00 0.000000e+00 0
0.000000e+00 0.000000e+00 0
0.000000e+00 0.000000e+00 0
0.000000e+00 0.000000e+00 0
0.000000e+00 0.000000e+00 0
0.000000e+00 0.000000e+00 0
1.871589e-18 0.000000e+00 0
0.000000e+00 0.000000e+00 0
0.000000e+00 0.000000e+00 0
0.000000e+00 0.000000e+00 0
0.000000e+00 0.000000e+00 0
0.000000e+00 0.000000e+00 0
0.000000e+00 0.000000e+00 0
0.000000e+00 0.000000e+00 0
1.003555e-17 0.000000e+00 0
0.000000e+00 0.000000e+00 0
0.000000e+00 0.000000e+00 0
0.000000e+00 0.000000e+00 0
0.000000e+00 0.000000e+00 0
0.000000e+00 0.000000e+00 0
0.000000e+00 0.000000e+00 0
0.000000e+00 0.000000e+00 0
7.205366e-18 0.000000e+00 0
0.000000e+00 0.000000e+00 0
0.000000e+00 0.000000e+00 0
0.000000e+00 0.000000e+00 0
0.000000e+00 0.000000e+00 0
0.000000e+00 0.000000e+00 0
0.000000e+00 0.000000e+00 0
0.000000e+00 0.000000e+00 0
-1.367021e-17 0.000000e+00 0
0.000000e+00 0.000000e+00 0
0.000000e+00 0.000000e+00 0
0.000000e+00 0.000000e+00 0
0.000000e+00 0.000000e+00 0
0.000000e+00 0.000000e+00 0
0.000000e+00 0.000000e+00 0
0.000000e+00 0.000000e+00 0
0.000000e+00 0.000000e+00 0
0.000000e+00 0.000000e+00 0
0.000000e+00 0.000000e+00 0
0.000000e+00 0.000000e+00 0
0.000000e+00 0.000000e+00 0
0.000000e+00 0.000000e+00 0
0.000000e+00 0.000000e+00 0
0.000000e+00 0.000000e+00 0
0.000000e+00 0.000000e+00 0
0.000000e+00 0.000000e+00 0
0.000000e+00 0.000000e+00 0
0.000000e+00 0.000000e+00 0
0.000000e+00 0.000000e+00 0
0.000000e+00 0.000000e+00 0
0.000000e+00 0.000000e+00 0
0.000000e+00 0.000000e+00 0
0.000000e+00 0.000000e+00 0
0.000000e+00 0.000000e+00 0
0.000000e+00 0.000000e+00 0
0.000000e+00 0.000000e+00 0
0.000000e+00 0.000000e+00 0
0.000000e+00 0.000000e+00 0
0.000000e+00 0.000000e+00 0
0.000000e+00 0.000000e+00 0
0.000000e+00 0.000000e+00 0
0.000000e+00 0.000000e+00 0
0.000000e+00 0.000000e+00 0
0.000000e+00 0.000000e+00 0
0.000000e+00 0.000000e+00 0
0.000000e+00 0.000000e+00 0
0.000000e+00 0.000000e+00 0
0.000000e+00 0.000000e+00 0
0.000000e+00 0.000000e+00 0
0.000000e+00 0.000000e+00 0
0.000000e+00 0.000000e+00 0
0.000000e+00 0.000000e+00 0
0.000000e+00 0.000000e+00 0
0.000000e+00 0.000000e+00 0
0.000000e+00 0.000000e+00 0
0.000000e+00 0.000000e+00 0
0.000000e+00 0.000000e+00 0
0.000000e+00 0.000000e+00 0
0.000000e+00 0.000000e+00 0
0.000000e+00 0.000000e+00 0
0.000000e+00 0.000000e+00 0
0.000000e+00 0.000000e+00 0
0.000000e+00 0.000000e+00 0
0.000000e+00 0.000000e+00 0
0.000000e+00 0.000000e+00 0
0.000000e+00 0.000000e+00 0
0.000000e+00 0.000000e+00 0
0.000000e+00 0.000000e+00 0
0.000000e+00 0.000000e+00 0
0.000000e+00 0.000000e+00 0
0.000000e+00 0.000000e+00 0
0.000000e+00 0.000000e+00 0
0.000000e+00 0.000000e+00 0
0.000000e+00 0.000000e+00 0
0.000000e+00 0.000000e+00 0
0.000000e+00 0.000000e+00 0
0.000000e+00 0.000000e+00 0
0.000000e+00 0.000000e+00 0
0.000000e+00 0.000000e+00 0
0.000000e+00 0.000000e+00 0
0.000000e+00 0.000000e+00 0
0.000000e+00 0.000000e+00 0
0.000000e+00 0.000000e+00 0
0.000000e+00 0.000000e+00 0
0.000000e+00 0.000000e+00 0
0.000000e+00 0.000000e+00 0
0.000000e+00 0.000000e+00 0
0.000000e+00 0.000000e+00 0
0.000000e+00 0.000000e+00 0
0.000000e+00 0.000000e+00 0
0.000000e+00 0.000000e+00 0
0.000000e+00 0.000000e+00 0
0.000000e+00 0.000000e+00 0
0.000000e+00 0.000000e+00 0
0.000000e+00 0.000000e+00 0
0.000000e+00 0.000000e+00 0
0.000000e+00 0.000000e+00 0
0.000000e+00 0.000000e+00 0
0.000000e+00 0.000000e+00 0
0.000000e+00 0.000000e+00 0
0.000000e+00 0.000000e+00 0
0.000000e+00 0.000000e+00 0
0.000000e+00 0.000000e+00 0
0.000000e+00 0.000000e+00 0
0.000000e+00 0.000000e+00 0
9.588819e-01 -1.423994e-04 0
9.588819e-01 -1.529049e-04 0
9.590128e-01 -1.494326e-04 0
9.591193e-01 -1.055199e-04 0
9.591806e-01 -3.723009e-05 0
9.591780e-01 4.647337e-05 0
9.590917e-01 1.481722e-04 0
9.588989e-01 2.742675e-04 0
9.585738e-01 4.293211e-04 0
9.580867e-01 6.178281e-04 0
9.574033e-01 8.447326e-04 0
9.564845e-01 1.115628e-03 0
9.552855e-01 1.436889e-03 0
9.537550e-01 1.815809e-03 0
9.518342e-01 2.260777e-03 0
9.494557e-01 2.781506e-03 0
9.465420e-01 3.389336e-03 0
9.430042e-01 4.097632e-03 0
9.387392e-01 4.922272e-03 0
9.336276e-01 5.882249e-03 0
9.275300e-01 7.000362e-03 0
9.202829e-01 8.303934e-03 0
9.116941e-01 9.825410e-03 0
9.015372e-01 1.160247e-02 0
8.895457e-01 1.367692e-02 0
8.754094e-01 1.609080e-02 0
8.587742e-01 1.887687e-02 0
8.392543e-01 2.203832e-02 0
8.164687e-01 2.551000e-02 0
7.901262e-01 2.909292e-02 0
7.601966e-01 3.236444e-02 0
7.272031e-01 3.460932e-02 0
6.926049e-01 3.491356e-02 0
6.589831e-01 3.264394e-02 0
6.292877e-01 2.814888e-02 0
6.050710e-01 2.256792e-02 0
5.864886e-01 1.697087e-02 0
5.729237e-01 1.198133e-02 0
5.635079e-01 7.805693e-03 0
5.574112e-01 4.362194e-03 0
5.539782e-01 1.025564e-03 0
5.526616e-01 -2.340374e-03 0
5.531364e-01 -5.118357e-03 0
5.550048e-01 -7.106632e-03 0
5.578769e-01 -8.384344e-03 0
5.614088e-01 -9.073126e-03 0
5.653158e-01 -9.305616e-03 0
5.693726e-01 -9.204093e-03 0
5.734071e-01 -8.870429e-03 0
5.772925e-01 -8.383842e-03 0
5.809378e-01 -7.802879e-03 0
5.842801e-01 -7.169160e-03 0
5.872769e-01 -6.511482e-03 0
5.899013e-01 -5.849609e-03 0
5.921382e-01 -5.197151e-03 0
5.939820e-01 -4.563146e-03 0
5.954336e-01 -3.952461e-03 0
5.964977e-01 -3.366097e-03 0
5.971806e-01 -2.803994e-03 0
5.975046e-01 -2.257185e-03 0
5.975124e-01 -1.721014e-03 0
5.972498e-01 -1.218021e-03 0
5.967443e-01 -7.709169e-04 0
5.960202e-01 -3.894626e-04 0
5.951014e-01 -9.229463e-05 0
5.940079e-01 1.219123e-04 0
5.927586e-01 2.868710e-04 0
5.913705e-01 4.272532e-04 0
5.898576e-01 5.513675e-04 0
5.882318e-01 6.627462e-04 0
5.865035e-01 7.632668e-04 0
5.846823e-01 8.541091e-04 0
5.827768e-01 9.361022e-04 0
5.807953e-01 1.009876e-03 0
5.787455e-01 1.075943e-03 0
5.766345e-01 1.134741e-03 0
5.744693e-01 1.186669e-03 0
5.722563e-01 1.232100e-03 0
5.700016e-01 1.271397e-03 0
5.677111e-01 1.304922e-03 0
5.653902e-01 1.333040e-03 0
5.630441e-01 1.356123e-03 0
5.606774e-01 1.374558e-03 0
5.582948e-01 1.388739e-03 0
5.559004e-01 1.399066e-03 0
5.534981e-01 1.405936e-03 0
5.510917e-01 1.409723e-03 0
5.486846e-01 1.410770e-03 0
5.462801e-01 1.409364e-03 0
5.438814e-01 1.405725e-03 0
5.414918e-01 1.399996e-03 0
5.391145e-01 1.392237e-03 0
5.367527e-01 1.382428e-03 0
5.344098e-01 1.370472e-03 0
5.320895e-01 1.356206e-03 0
5.297955e-01 1.339405e-03 0
5.275321e-01 1.319783e-03 0
5.253035e-01 1.296995e-03 0
5.231146e-01 1.270629e-03 0
5.209704e-01 1.240198e-03 0
5.188764e-01 1.205139e-03 0
5.168385e-01 1.164821e-03 0
5.148628e-01 1.118587e-03 0
5.129560e-01 1.065885e-03 0
5.111249e-01 1.006482e-03 0
5.093766e-01 9.405324e-04 0
5.077189e-01 8.675400e-04 0
5.061617e-01 7.825895e-04 0
5.047186e-01 6.693286e-04 0
5.034087e-01 4.957211e-04 0
5.022499e-01 2.334525e-04 0
5.012428e-01 -7.105369e-05 0
5.003736e-01 -3.193588e-04 0
4.996265e-01 -4.731656e-04 0
4.989864e-01 -5.534094e-04 0
4.984417e-01 -5.893804e-04 0
4.979874e-01 -6.049215e-04 0
4.976291e-01 -6.180768e-04 0
4.973947e-01 -6.446658e-04 0
4.973407e-01 -7.081500e-04 0
4.975052e-01 -8.199788e-04 0
4.978869e-01 -9.576208e-04 0
4.984657e-01 -1.089551e-03 0
4.992123e-01 -1.196373e-03 0
5.000940e-01 -1.269970e-03 0
5.010781e-01 -1.309252e-03 0
5.021339e-01 -1.317292e-03 0
5.032333e-01 -1.300456e-03 0
5.043548e-01 -1.267109e-03 0
5.054867e-01 -1.223510e-03 0
5.066204e-01 -1.172083e-03 0
5.077480e-01 -1.113455e-03 0
5.088619e-01 -1.047878e-03 0
5.099548e-01 -9.758080e-04 0
5.110199e-01 -8.981078e-04 0
5.120512e-01 -8.161332e-04 0
5.130435e-01 -7.318225e-04 0
5.139931e-01 -6.477913e-04 0
5.148973e-01 -5.673864e-04 0
5.157547e-01 -4.945906e-04 0
5.165654e-01 -4.336450e-04 0
5.173303e-01 -3.883172e-04 0
5.180512e-01 -3.609046e-04 0
5.187298e-01 -3.512593e-04 0
5.193669e-01 -3.562395e-04 0
5.199623e-01 -3.699440e-04 0
5.205138e-01 -3.848244e-04 0
5.210177e-01 -3.933897e-04 0
5.214694e-01 -3.898998e-04 0
5.218643e-01 -3.714598e-04 0
5.221991e-01 -3.383100e-04 0
5.224721e-01 -2.935479e-04 0
5.226831e-01 -2.425463e-04 0
5.228350e-01 -1.920975e-04 0
5.229335e-01 -1.491102e-04 0
5.229890e-01 -1.185516e-04 0
5.230171e-01 -9.641645e-05 0
5.230365e-01 -9.315976e-05 0
5.230365e-01 -1.002872e-04 0
1.365166e+00 -2.806086e-04 0
1.365166e+00 -2.781486e-04 0
1.365279e+00 -2.499905e-04 0
1.365372e+00 -1.767530e-04 0
1.365436e+00 -6.192111e-05 0
1.365453e+00 9.366058e-05 0
1.365402e+00 2.940173e-04 0
1.365261e+00 5.454652e-04 0
1.365008e+00 8.555805e-04 0
1.364617e+00 1.233013e-03 0
1.364057e+00 1.687629e-03 0
1.363296e+00 2.230688e-03 0
1.362294e+00 2.875044e-03 0
1.361007e+00 3.635406e-03 0
1.359382e+00 4.528681e-03 0
1.357363e+00 5.574442e-03 0
1.354881e+00 6.795546e-03 0
1.351859e+00 8.218937e-03 0
1.348209e+00 9.876661e-03 0
1.343827e+00 1.180711e-02 0
1.338591e+00 1.405650e-02 0
1.332361e+00 1.668045e-02 0
1.324968e+00 1.974546e-02 0
1.316213e+00 2.332961e-02 0
1.305858e+00 2.752126e-02 0
1.293614e+00 3.241271e-02 0
1.279137e+00 3.808341e-02 0
1.262017e+00 4.456187e-02 0
1.241784e+00 5.174834e-02 0
1.217942e+00 5.927330e-02 0
1.190099e+00 6.627903e-02 0
1.158314e+00 7.119662e-02 0
1.123826e+00 7.185837e-02 0
1.090042e+00 6.669411e-02 0
1.061683e+00 5.678754e-02 0
1.039985e+00 4.508180e-02 0
1.024158e+00 3.386181e-02 0
1.012903e+00 2.420643e-02 0
1.005050e+00 1.634000e-02 0
9.996899e-01 1.003808e-02 0
9.961168e-01 5.002998e-03 0
9.933528e-01 8.868233e-04 0
9.909398e-01 -2.468085e-03 0
9.888210e-01 -4.993213e-03 0
9.869599e-01 -6.745348e-03 0
9.853310e-01 -7.835523e-03 0
9.839046e-01 -8.388368e-03 0
9.826433e-01 -8.522665e-03 0
9.815045e-01 -8.342138e-03 0
9.804435e-01 -7.932184e-03 0
9.794171e-01 -7.360055e-03 0
9.783851e-01 -6.676907e-03 0
9.773112e-01 -5.920815e-03 0
9.761630e-01 -5.120466e-03 0
9.749135e-01 -4.298147e-03 0
9.735418e-01 -3.470894e-03 0
9.720342e-01 -2.649637e-03 0
9.703948e-01 -1.839988e-03 0
9.686435e-01 -1.060410e-03 0
9.667889e-01 -3.492813e-04 0
9.648442e-01 2.686473e-04 0
9.628189e-01 8.093773e-04 0
9.607114e-01 1.295364e-03 0
9.585166e-01 1.730757e-03 0
9.562244e-01 2.119897e-03 0
9.538102e-01 2.467921e-03 0
9.512624e-01 2.778243e-03 0
9.485850e-01 3.055957e-03 0
9.457862e-01 3.306384e-03 0
9.428745e-01 3.533244e-03 0
9.398579e-01 3.739073e-03 0
9.367445e-01 3.925694e-03 0
9.335415e-01 4.094495e-03 0
9.302563e-01 4.246604e-03 0
9.268955e-01 4.382987e-03 0
9.234657e-01 4.504511e-03 0
9.199731e-01 4.611978e-03 0
9.164237e-01 4.706154e-03 0
9.128233e-01 4.787774e-03 0
9.091773e-01 4.857555e-03 0
9.054912e-01 4.916201e-03 0
9.017699e-01 4.964393e-03 0
8.980185e-01 5.002796e-03 0
8.942417e-01 5.032045e-03 0
8.904443e-01 5.052736e-03 0
8.866308e-01 5.065410e-03 0
8.828059e-01 5.070535e-03 0
8.789740e-01 5.068489e-03 0
8.751399e-01 5.059542e-03 0
8.713080e-01 5.043846e-03 0
8.674832e-01 5.021424e-03 0
8.636702e-01 4.992171e-03 0
8.598740e-01 4.955860e-03 0
8.560997e-01 4.912151e-03 0
8.523525e-01 4.860604e-03 0
8.486378e-01 4.800692e-03 0
8.449612e-01 4.731814e-03 0
8.413285e-01 4.653302e-03 0
8.377457e-01 4.564432e-03 0
8.342187e-01 4.464437e-03 0
8.307538e-01 4.352521e-03 0
8.273571e-01 4.227886e-03 0
8.240350e-01 4.089783e-03 0
8.207935e-01 3.937553e-03 0
8.176390e-01 3.770577e-03 0
8.145782e-01 3.587827e-03 0
8.116187e-01 3.386592e-03 0
8.087686e-01 3.160572e-03 0
8.060338e-01 2.900013e-03 0
8.034088e-01 2.600593e-03 0
8.008653e-01 2.281640e-03 0
7.983581e-01 1.976616e-03 0
7.958865e-01 1.702731e-03 0
7.934885e-01 1.461446e-03 0
7.911972e-01 1.248216e-03 0
7.890344e-01 1.052476e-03 0
7.870141e-01 8.561680e-04 0
7.851489e-01 6.244960e-04 0
7.834489e-01 3.040044e-04 0
7.819103e-01 -1.161923e-04 0
7.805087e-01 -5.751342e-04 0
7.792210e-01 -1.011511e-03 0
7.780353e-01 -1.395868e-03 0
7.769470e-01 -1.714920e-03 0
7.759549e-01 -1.965173e-03 0
7.750588e-01 -2.148515e-03 0
7.742609e-01 -2.269901e-03 0
7.735686e-01 -2.339151e-03 0
7.729912e-01 -2.373403e-03 0
7.725256e-01 -2.386278e-03 0
7.721648e-01 -2.381772e-03 0
7.719010e-01 -2.360930e-03 0
7.717266e-01 -2.324351e-03 0
7.716350e-01 -2.272927e-03 0
7.716200e-01 -2.208011e-03 0
7.716762e-01 -2.131418e-03 0
7.717982e-01 -2.045380e-03 0
7.719810e-01 -1.952457e-03 0
7.722192e-01 -1.855400e-03 0
7.725064e-01 -1.756953e-03 0
7.728348e-01 -1.659565e-03 0
7.731948e-01 -1.565009e-03 0
7.735747e-01 -1.473976e-03 0
7.739616e-01 -1.385761e-03 0
7.743419e-01 -1.298203e-03 0
7.747023e-01 -1.208020e-03 0
7.750311e-01 -1.111642e-03 0
7.753190e-01 -1.006421e-03 0
7.755600e-01 -8.916331e-04 0
7.757521e-01 -7.686313e-04 0
7.758970e-01 -6.401553e-04 0
7.759985e-01 -5.098089e-04 0
7.760609e-01 -3.822543e-04 0
7.760893e-01 -2.636903e-04 0
7.760903e-01 -1.621957e-04 0
7.760749e-01 -8.806082e-05 0
7.760624e-01 -5.002953e-05 0
7.760814e-01 -1.133540e-04 0
7.760814e-01 -1.859209e-04 0
1.533165e+00 -4.209970e-04 0
1.533165e+00 -4.109967e-04 0
1.533291e+00 -3.663710e-04 0
1.533403e+00 -2.712400e-04 0
1.533495e+00 -1.228024e-04 0
1.533554e+00 8.265444e-05 0
1.533568e+00 3.507359e-04 0
1.533524e+00 6.893391e-04 0
1.533404e+00 1.108292e-03 0
1.533190e+00 1.619231e-03 0
1.532862e+00 2.235619e-03 0
1.532394e+00 2.972879e-03 0
1.531760e+00 3.848610e-03 0
1.530927e+00 4.882906e-03 0
1.529859e+00 6.098805e-03 0
1.528514e+00 7.522914e-03 0
1.526847e+00 9.186244e-03 0
1.524802e+00 1.112532e-02 0
1.522319e+00 1.338360e-02 0
1.519328e+00 1.601331e-02 0
1.515747e+00 1.907764e-02 0
1.511480e+00 2.265340e-02 0
1.506416e+00 2.683397e-02 0
1.500416e+00 3.173217e-02 0
1.493312e+00 3.748204e-02 0
1.484887e+00 4.423699e-02 0
1.474855e+00 5.215865e-02 0
1.462817e+00 6.138321e-02 0
1.448197e+00 7.193600e-02 0
1.430148e+00 8.353400e-02 0
1.407481e+00 9.517245e-02 0
1.378853e+00 1.044174e-01 0
1.344052e+00 1.068261e-01 0
1.308078e+00 9.810122e-02 0
1.282368e+00 8.087608e-02 0
1.266305e+00 6.209402e-02 0
1.256597e+00 4.549709e-02 0
1.250646e+00 3.210903e-02 0
1.246870e+00 2.172375e-02 0
1.244365e+00 1.377150e-02 0
1.242559e+00 7.700748e-03 0
1.241112e+00 3.112705e-03 0
1.239665e+00 -3.447921e-04 0
1.238112e+00 -2.914346e-03 0
1.236466e+00 -4.708166e-03 0
1.234762e+00 -5.854778e-03 0
1.233036e+00 -6.474504e-03 0
1.231314e+00 -6.675941e-03 0
1.229607e+00 -6.553254e-03 0
1.227921e+00 -6.185044e-03 0
1.226251e+00 -5.634562e-03 0
1.224588e+00 -4.950864e-03 0
1.222920e+00 -4.170871e-03 0
1.221229e+00 -3.323963e-03 0
1.219499e+00 -2.435977e-03 0
1.217728e+00 -1.530185e-03 0
1.215919e+00 -6.375654e-04 0
1.214075e+00 2.055896e-04 0
1.212194e+00 9.943103e-04 0
1.210267e+00 1.744772e-03 0
1.208266e+00 2.460841e-03 0
1.206165e+00 3.135336e-03 0
1.203954e+00 3.760943e-03 0
1.201633e+00 4.336923e-03 0
1.199199e+00 4.865145e-03 0
1.196653e+00 5.348691e-03 0
1.193998e+00 5.790860e-03 0
1.191235e+00 6.195534e-03 0
1.188369e+00 6.566616e-03 0
1.185404e+00 6.907359e-03 0
1.182345e+00 7.220310e-03 0
1.179196e+00 7.507459e-03 0
1.175964e+00 7.770402e-03 0
1.172652e+00 8.010466e-03 0
1.169265e+00 8.228799e-03 0
1.165808e+00 8.426432e-03 0
1.162285e+00 8.604313e-03 0
1.158701e+00 8.763340e-03 0
1.155059e+00 8.904366e-03 0
1.151364e+00 9.028213e-03 0
1.147621e+00 9.135668e-03 0
1.143833e+00 9.227485e-03 0
1.140004e+00 9.304377e-03 0
1.136139e+00 9.367006e-03 0
1.132242e+00 9.415974e-03 0
1.128317e+00 9.451809e-03 0
1.124369e+00 9.474944e-03 0
1.120402e+00 9.485711e-03 0
1.116421e+00 9.484319e-03 0
1.112429e+00 9.470849e-03 0
1.108433e+00 9.445251e-03 0
1.104435e+00 9.407344e-03 0
1.100442e+00 9.356823e-03 0
1.096457e+00 9.293273e-03 0
1.092486e+00 9.216182e-03 0
1.088533e+00 9.124960e-03 0
1.084603e+00 9.018952e-03 0
1.080702e+00 8.897460e-03 0
1.076833e+00 8.759755e-03 0
1.073002e+00 8.605100e-03 0
1.069213e+00 8.432769e-03 0
1.065471e+00 8.242072e-03 0
1.061781e+00 8.032369e-03 0
1.058145e+00 7.803040e-03 0
1.054570e+00 7.553349e-03 0
1.051058e+00 7.282090e-03 0
1.047614e+00 6.987120e-03 0
1.044240e+00 6.665406e-03 0
1.040934e+00 6.315039e-03 0
1.037689e+00 5.939962e-03 0
1.034493e+00 5.553657e-03 0
1.031350e+00 5.173400e-03 0
1.028270e+00 4.810088e-03 0
1.025266e+00 4.466290e-03 0
1.022349e+00 4.138333e-03 0
1.019528e+00 3.816900e-03 0
1.016809e+00 3.487854e-03 0
1.014191e+00 3.137430e-03 0
1.011652e+00 2.766738e-03 0
1.009138e+00 2.388928e-03 0
1.006611e+00 2.012866e-03 0
1.004069e+00 1.647810e-03 0
1.001523e+00 1.305797e-03 0
9.989920e-01 9.950333e-04 0
9.964960e-01 7.189766e-04 0
9.940543e-01 4.751614e-04 0
9.916851e-01 2.525472e-04 0
9.894039e-01 3.707398e-05 0
9.872193e-01 -1.684961e-04 0
9.851328e-01 -3.530474e-04 0
9.831444e-01 -5.140185e-04 0
9.812534e-01 -6.517698e-04 0
9.794596e-01 -7.676555e-04 0
9.777629e-01 -8.635051e-04 0
9.761633e-01 -9.414390e-04 0
9.746608e-01 -1.003763e-03 0
9.732549e-01 -1.052902e-03 0
9.719449e-01 -1.091211e-03 0
9.707295e-01 -1.120726e-03 0
9.696064e-01 -1.142957e-03 0
9.685729e-01 -1.158664e-03 0
9.676252e-01 -1.167652e-03 0
9.667593e-01 -1.168652e-03 0
9.659706e-01 -1.159314e-03 0
9.652542e-01 -1.136343e-03 0
9.646038e-01 -1.095876e-03 0
9.640101e-01 -1.034423e-03 0
9.634607e-01 -9.504840e-04 0
9.629415e-01 -8.460519e-04 0
9.624412e-01 -7.264111e-04 0
9.619540e-01 -5.978281e-04 0
9.614778e-01 -4.662032e-04 0
9.610118e-01 -3.382099e-04 0
9.605569e-01 -2.230495e-04 0
9.601170e-01 -1.339443e-04 0
9.597012e-01 -8.910428e-05 0
9.593311e-01 -1.033039e-04 0
9.590405e-01 -2.182075e-04 0
9.590405e-01 -3.101647e-04 0
1.614322e+00 -5.691211e-04 0
1.614322e+00 -5.553605e-04 0
1.614462e+00 -5.009654e-04 0
1.614594e+00 -3.908781e-04 0
1.614712e+00 -2.203739e-04 0
1.614811e+00 1.595142e-05 0
1.614882e+00 3.256384e-04 0
1.614918e+00 7.187980e-04 0
1.614906e+00 1.206996e-03 0
1.614835e+00 1.804073e-03 0
1.614690e+00 2.526083e-03 0
1.614453e+00 3.391372e-03 0
1.614104e+00 4.420777e-03 0
1.613623e+00 5.637941e-03 0
1.612982e+00 7.069786e-03 0
1.612154e+00 8.747186e-03 0
1.611107e+00 1.070590e-02 0
1.609806e+00 1.298782e-02 0
1.608213e+00 1.564267e-02 0
1.606285e+00 1.873013e-02 0
1.603974e+00 2.232271e-02 0
1.601226e+00 2.650936e-02 0
1.597979e+00 3.140014e-02 0
1.594157e+00 3.713225e-02 0
1.589668e+00 4.387781e-02 0
1.584380e+00 5.185339e-02 0
1.578098e+00 6.133065e-02 0
1.570501e+00 7.264223e-02 0
1.561007e+00 8.615994e-02 0
1.548500e+00 1.021611e-01 0
1.530789e+00 1.203093e-01 0
1.503764e+00 1.380083e-01 0
1.461422e+00 1.464085e-01 0
1.409319e+00 1.316676e-01 0
1.385531e+00 1.007881e-01 0
1.377520e+00 7.222699e-02 0
1.375896e+00 5.035668e-02 0
1.376395e+00 3.445238e-02 0
1.377355e+00 2.295613e-02 0
1.378185e+00 1.457890e-02 0
1.378691e+00 8.429522e-03 0
1.378818e+00 3.936113e-03 0
1.378545e+00 6.913042e-04 0
1.377879e+00 -1.623965e-03 0
1.376901e+00 -3.216425e-03 0
1.375691e+00 -4.222828e-03 0
1.374323e+00 -4.755804e-03 0
1.372852e+00 -4.910746e-03 0
1.371320e+00 -4.768476e-03 0
1.369754e+00 -4.396379e-03 0
1.368171e+00 -3.849041e-03 0
1.366580e+00 -3.168418e-03 0
1.364985e+00 -2.383224e-03 0
1.363373e+00 -1.517551e-03 0
1.361745e+00 -6.093781e-04 0
1.360101e+00 3.003245e-04 0
1.358439e+00 1.197520e-03 0
1.356747e+00 2.084005e-03 0
1.354999e+00 2.951061e-03 0
1.353186e+00 3.787910e-03 0
1.351307e+00 4.589881e-03 0
1.349362e+00 5.351697e-03 0
1.347346e+00 6.068949e-03 0
1.345257e+00 6.739983e-03 0
1.343091e+00 7.365180e-03 0
1.340847e+00 7.946175e-03 0
1.338524e+00 8.485277e-03 0