<?xml version="1.0"?>
<VTKFile type="StructuredGrid">
<StructuredGrid WholeExtent="0 158 0 30 0 0 ">
<Piece Extent="0 158 0 30 0 0 ">
<Points>
<DataArray type="Float64" format="ascii" NumberOfComponents="3">
0.000000e+00 0.000000e+00 0.000000e+00
3.164557e-02 0.000000e+00 0.000000e+00
6.329114e-02 0.000000e+00 0.000000e+00
9.493671e-02 0.000000e+00 0.000000e+00
1.265823e-01 0.000000e+00 0.000000e+00
1.582278e-01 0.000000e+00 0.000000e+00
1.898734e-01 0.000000e+00 0.000000e+00
2.215190e-01 0.000000e+00 0.000000e+00
2.531646e-01 0.000000e+00 0.000000e+00
2.848101e-01 0.000000e+00 0.000000e+00
3.164557e-01 0.000000e+00 0.000000e+00
3.481013e-01 0.000000e+00 0.000000e+00
3.797468e-01 0.000000e+00 0.000000e+00
4.113924e-01 0.000000e+00 0.000000e+00
4.430380e-01 0.000000e+00 0.000000e+00
4.746835e-01 0.000000e+00 0.000000e+00
5.063291e-01 0.000000e+00 0.000000e+00
5.379747e-01 0.000000e+00 0.000000e+00
5.696203e-01 0.000000e+00 0.000000e+00
6.012658e-01 0.000000e+00 0.000000e+00
6.329114e-01 0.000000e+00 0.000000e+00
6.645570e-01 0.000000e+00 0.000000e+00
6.962025e-01 0.000000e+00 0.000000e+00
7.278481e-01 0.000000e+00 0.000000e+00
7.594937e-01 0.000000e+00 0.000000e+00
7.911392e-01 0.000000e+00 0.000000e+00
8.227848e-01 0.000000e+00 0.000000e+00
8.544304e-01 0.000000e+00 0.000000e+00
8.860759e-01 0.000000e+00 0.000000e+00
9.177215e-01 0.000000e+00 0.000000e+00
9.493671e-01 0.000000e+00 0.000000e+00
9.810127e-01 0.000000e+00 0.000000e+00
1.012658e+00 0.000000e+00 0.000000e+00
1.044304e+00 0.000000e+00 0.000000e+00
1.075949e+00 0.000000e+00 0.000000e+00
1.107595e+00 0.000000e+00 0.000000e+00
1.139241e+00 0.000000e+00 0.000000e+00
1.170886e+00 0.000000e+00 0.000000e+00
1.202532e+00 0.000000e+00 0.000000e+00
1.234177e+00 0.000000e+00 0.000000e+00
1.265823e+00 0.000000e+00 0.000000e+00
1.297468e+00 0.000000e+00 0.000000e+00
1.329114e+00 0.000000e+00 0.000000e+00
1.360759e+00 0.000000e+00 0.000000e+00
1.392405e+00 0.000000e+00 0.000000e+00
1.424051e+00 0.000000e+00 0.000000e+00
1.455696e+00 0.000000e+00 0.000000e+00
1.487342e+00 0.000000e+00 0.000000e+00
1.518987e+00 0.000000e+00 0.000000e+00
1.550633e+00 0.000000e+00 0.000000e+00
1.582278e+00 0.000000e+00 0.000000e+00
1.613924e+00 0.000000e+00 0.000000e+00
1.645570e+00 0.000000e+00 0.000000e+00
1.677215e+00 0.000000e+00 0.000000e+00
1.708861e+00 0.000000e+00 0.000000e+00
1.740506e+00 0.000000e+00 0.000000e+00
1.772152e+00 0.000000e+00 0.000000e+00
1.803797e+00 0.000000e+00 0.000000e+00
1.835443e+00 0.000000e+00 0.000000e+00
1.867089e+00 0.000000e+00 0.000000e+00
1.898734e+00 0.000000e+00 0.000000e+00
1.930380e+00 0.000000e+00 0.000000e+00
1.962025e+00 0.000000e+00 0.000000e+00
1.993671e+00 0.000000e+00 0.000000e+00
2.025316e+00 0.000000e+00 0.000000e+00
2.056962e+00 0.000000e+00 0.000000e+00
2.088608e+00 0.000000e+00 0.000000e+00
2.120253e+00 0.000000e+00 0.000000e+00
2.151899e+00 0.000000e+00 0.000000e+00
2.183544e+00 0.000000e+00 0.000000e+00
2.215190e+00 0.000000e+00 0.000000e+00
2.246835e+00 0.000000e+00 0.000000e+00
2.278481e+00 0.000000e+00 0.000000e+00
2.310127e+00 0.000000e+00 0.000000e+00
2.341772e+00 0.000000e+00 0.000000e+00
2.373418e+00 0.000000e+00 0.000000e+00
2.405063e+00 0.000000e+00 0.000000e+00
2.436709e+00 0.000000e+00 0.000000e+00
2.468354e+00 0.000000e+00 0.000000e+00
2.500000e+00 0.000000e+00 0.000000e+00
2.531646e+00 0.000000e+00 0.000000e+00
2.563291e+00 0.000000e+00 0.000000e+00
2.594937e+00 0.000000e+00 0.000000e+00
2.626582e+00 0.000000e+00 0.000000e+00
2.658228e+00 0.000000e+00 0.000000e+00
2.689873e+00 0.000000e+00 0.000000e+00
2.721519e+00 0.000000e+00 0.000000e+00
2.753165e+00 0.000000e+00 0.000000e+00
2.784810e+00 0.000000e+00 0.000000e+00
2.816456e+00 0.000000e+00 0.000000e+00
2.848101e+00 0.000000e+00 0.000000e+00
2.879747e+00 0.000000e+00 0.000000e+00
2.911392e+00 0.000000e+00 0.000000e+00
2.943038e+00 0.000000e+00 0.000000e+00
2.974684e+00 0.000000e+00 0.000000e+00
3.006329e+00 0.000000e+00 0.000000e+00
3.037975e+00 0.000000e+00 0.000000e+00
3.069620e+00 0.000000e+00 0.000000e+00
3.101266e+00 0.000000e+00 0.000000e+00
3.132911e+00 0.000000e+00 0.000000e+00
3.164557e+00 0.000000e+00 0.000000e+00
3.196203e+00 0.000000e+00 0.000000e+00
3.227848e+00 0.000000e+00 0.000000e+00
3.259494e+00 0.000000e+00 0.000000e+00
3.291139e+00 0.000000e+00 0.000000e+00
3.322785e+00 0.000000e+00 0.000000e+00
3.354430e+00 0.000000e+00 0.000000e+00
3.386076e+00 0.000000e+00 0.000000e+00
3.417722e+00 0.000000e+00 0.000000e+00
3.449367e+00 0.000000e+00 0.000000e+00
3.481013e+00 0.000000e+00 0.000000e+00
3.512658e+00 0.000000e+00 0.000000e+00
3.544304e+00 0.000000e+00 0.000000e+00
3.575949e+00 0.000000e+00 0.000000e+00
3.607595e+00 0.000000e+00 0.000000e+00
3.639241e+00 0.000000e+00 0.000000e+00
3.670886e+00 0.000000e+00 0.000000e+00
3.702532e+00 0.000000e+00 0.000000e+00
3.734177e+00 0.000000e+00 0.000000e+00
3.765823e+00 0.000000e+00 0.000000e+00
3.797468e+00 0.000000e+00 0.000000e+00
3.829114e+00 0.000000e+00 0.000000e+00
3.860759e+00 0.000000e+00 0.000000e+00
3.892405e+00 0.000000e+00 0.000000e+00
3.924051e+00 0.000000e+00 0.000000e+00
3.955696e+00 0.000000e+00 0.000000e+00
3.987342e+00 0.000000e+00 0.000000e+00
4.018987e+00 0.000000e+00 0.000000e+00
4.050633e+00 0.000000e+00 0.000000e+00
4.082278e+00 0.000000e+00 0.000000e+00
4.113924e+00 0.000000e+00 0.000000e+00
4.145570e+00 0.000000e+00 0.000000e+00
4.177215e+00 0.000000e+00 0.000000e+00
4.208861e+00 0.000000e+00 0.000000e+00
4.240506e+00 0.000000e+00 0.000000e+00
4.272152e+00 0.000000e+00 0.000000e+00
4.303797e+00 0.000000e+00 0.000000e+00
4.335443e+00 0.000000e+00 0.000000e+00
4.367089e+00 0.000000e+00 0.000000e+00
4.398734e+00 0.000000e+00 0.000000e+00
4.430380e+00 0.000000e+00 0.000000e+00
4.462025e+00 0.000000e+00 0.000000e+00
4.493671e+00 0.000000e+00 0.000000e+00
4.525316e+00 0.000000e+00 0.000000e+00
4.556962e+00 0.000000e+00 0.000000e+00
4.588608e+00 0.000000e+00 0.000000e+00
4.620253e+00 0.000000e+00 0.000000e+00
4.651899e+00 0.000000e+00 0.000000e+00
4.683544e+00 0.000000e+00 0.000000e+00
4.715190e+00 0.000000e+00 0.000000e+00
4.746835e+00 0.000000e+00 0.000000e+00
4.778481e+00 0.000000e+00 0.000000e+00
4.810127e+00 0.000000e+00 0.000000e+00
4.841772e+00 0.000000e+00 0.000000e+00
4.873418e+00 0.000000e+00 0.000000e+00
4.905063e+00 0.000000e+00 0.000000e+00
4.936709e+00 0.000000e+00 0.000000e+00
4.968354e+00 0.000000e+00 0.000000e+00
5.000000e+00 0.000000e+00 0.000000e+00
0.000000e+00 3.333333e-02 0.000000e+00
3.164557e-02 3.333333e-02 0.000000e+00
6.329114e-02 3.333333e-02 0.000000e+00
9.493671e-02 3.333333e-02 0.000000e+00
1.265823e-01 3.333333e-02 0.000000e+00
1.582278e-01 3.333333e-02 0.000000e+00
1.898734e-01 3.333333e-02 0.000000e+00
2.215190e-01 3.333333e-02 0.000000e+00
2.531646e-01 3.333333e-02 0.000000e+00
2.848101e-01 3.333333e-02 0.000000e+00
3.164557e-01 3.333333e-02 0.000000e+00
3.481013e-01 3.333333e-02 0.000000e+00
3.797468e-01 3.333333e-02 0.000000e+00
4.113924e-01 3.333333e-02 0.000000e+00
4.430380e-01 3.333333e-02 0.000000e+00
4.746835e-01 3.333333e-02 0.000000e+00
5.063291e-01 3.333333e-02 0.000000e+00
5.379747e-01 3.333333e-02 0.000000e+00
5.696203e-01 3.333333e-02 0.000000e+00
6.012658e-01 3.333333e-02 0.000000e+00
6.329114e-01 3.333333e-02 0.000000e+00
6.645570e-01 3.333333e-02 0.000000e+00
6.962025e-01 3.333333e-02 0.000000e+00
7.278481e-01 3.333333e-02 0.000000e+00
7.594937e-01 3.333333e-02 0.000000e+00
7.911392e-01 3.333333e-02 0.000000e+00
8.227848e-01 3.333333e-02 0.000000e+00
8.544304e-01 3.333333e-02 0.000000e+00
8.860759e-01 3.333333e-02 0.000000e+00
9.177215e-01 3.333333e-02 0.000000e+00
9.493671e-01 3.333333e-02 0.000000e+00
9.810127e-01 3.333333e-02 0.000000e+00
1.012658e+00 3.333333e-02 0.000000e+00
1.044304e+00 3.333333e-02 0.000000e+00
1.075949e+00 3.333333e-02 0.000000e+00
1.107595e+00 3.333333e-02 0.000000e+00
1.139241e+00 3.333333e-02 0.000000e+00
1.170886e+00 3.333333e-02 0.000000e+00
1.202532e+00 3.333333e-02 0.000000e+00
1.234177e+00 3.333333e-02 0.000000e+00
1.265823e+00 3.333333e-02 0.000000e+00
1.297468e+00 3.333333e-02 0.000000e+00
1.329114e+00 3.333333e-02 0.000000e+00
1.360759e+00 3.333333e-02 0.000000e+00
1.392405e+00 3.333333e-02 0.000000e+00
1.424051e+00 3.333333e-02 0.000000e+00
1.455696e+00 3.333333e-02 0.000000e+00
1.487342e+00 3.333333e-02 0.000000e+00
1.518987e+00 3.333333e-02 0.000000e+00
1.550633e+00 3.333333e-02 0.000000e+00
1.582278e+00 3.333333e-02 0.000000e+00
1.613924e+00 3.333333e-02 0.000000e+00
1.645570e+00 3.333333e-02 0.000000e+00
1.677215e+00 3.333333e-02 0.000000e+00
1.708861e+00 3.333333e-02 0.000000e+00
1.740506e+00 3.333333e-02 0.000000e+00
1.772152e+00 3.333333e-02 0.000000e+00
1.803797e+00 3.333333e-02 0.000000e+00
1.835443e+00 3.333333e-02 0.000000e+00
1.867089e+00 3.333333e-02 0.000000e+00
1.898734e+00 3.333333e-02 0.000000e+00
1.930380e+00 3.333333e-02 0.000000e+00
1.962025e+00 3.333333e-02 0.000000e+00
1.993671e+00 3.333333e-02 0.000000e+00
2.025316e+00 3.333333e-02 0.000000e+00
2.056962e+00 3.333333e-02 0.000000e+00
2.088608e+00 3.333333e-02 0.000000e+00
2.120253e+00 3.333333e-02 0.000000e+00
2.151899e+00 3.333333e-02 0.000000e+00
2.183544e+00 3.333333e-02 0.000000e+00
2.215190e+00 3.333333e-02 0.000000e+00
2.246835e+00 3.333333e-02 0.000000e+00
2.278481e+00 3.333333e-02 0.000000e+00
2.310127e+00 3.333333e-02 0.000000e+00
2.341772e+00 3.333333e-02 0.000000e+00
2.373418e+00 3.333333e-02 0.000000e+00
2.405063e+00 3.333333e-02 0.000000e+00
2.436709e+00 3.333333e-02 0.000000e+00
2.468354e+00 3.333333e-02 0.000000e+00
2.500000e+00 3.333333e-02 0.000000e+00
2.531646e+00 3.333333e-02 0.000000e+00
2.563291e+00 3.333333e-02 0.000000e+00
2.594937e+00 3.333333e-02 0.000000e+00
2.626582e+00 3.333333e-02 0.000000e+00
2.658228e+00 3.333333e-02 0.000000e+00
2.689873e+00 3.333333e-02 0.000000e+00
2.721519e+00 3.333333e-02 0.000000e+00
2.753165e+00 3.333333e-02 0.000000e+00
2.784810e+00 3.333333e-02 0.000000e+00
2.816456e+00 3.333333e-02 0.000000e+00
2.848101e+00 3.333333e-02 0.000000e+00
2.879747e+00 3.333333e-02 0.000000e+00
[...]
<PointData>
<DataArray Name="Velocity" type="Float64" format="ascii" NumberOfComponents="3">
0.000000e+00 0.000000e+00 0
0.000000e+00 0.000000e+00 0
0.000000e+00 0.000000e+00 0
0.000000e+00 0.000000e+00 0
0.000000e+00 0.000000e+00 0
0.000000e+00 0.000000e+00 0
0.000000e+00 0.000000e+00 0
0.000000e+00 0.000000e+00 0
0.000000e+00 0.000000e+00 0
0.000000e+00 0.000000e+00 0
0.000000e+00 0.000000e+00 0
0.000000e+00 0.000000e+00 0
0.000000e+00 0.000000e+00 0
0.000000e+00 0.000000e+00 0
0.000000e+00 0.000000e+00 0
0.000000e+00 0.000000e+00 0
0.000000e+00 0.000000e+00 0
0.000000e+00 0.000000e+00 0
0.000000e+00 0.000000e+00 0
-1.319306e-17 0.000000e+00 0
0.000000e+00 0.000000e+00 0
0.000000e+00 0.000000e+00 0
0.000000e+00 0.000000e+00 0
-4.220256e-18 0.000000e+00 0
0.000000e+00 0.000000e+00 0
0.000000e+00 0.000000e+00 0
0.000000e+00 0.000000e+00 0
1.944361e-17 0.000000e+00 0
0.000000e+00 0.000000e+00 0
0.000000e+00 0.000000e+00 0
0.000000e+00 0.000000e+00 0
-1.335919e-17 0.000000e+00 0
0.000000e+00 0.000000e+00 0
0.000000e+00 0.000000e+00 0
0.000000e+00 0.000000e+00 0
0.000000e+00 0.000000e+00 0
0.000000e+00 0.000000e+00 0
0.000000e+00 0.000000e+00 0
-1.213429e-17 0.000000e+00 0
0.000000e+00 0.000000e+00 0
0.000000e+00 0.000000e+00 0
0.000000e+00 0.000000e+00 0
0.000000e+00 0.000000e+00 0
0.000000e+00 0.000000e+00 0
0.000000e+00 0.000000e+00 0
0.000000e+00 0.000000e+00 0
1.962789e-17 0.000000e+00 0
0.000000e+00 0.000000e+00 0
0.000000e+00 0.000000e+00 0
0.000000e+00 0.000000e+00 0
0.000000e+00 0.000000e+00 0
0.000000e+00 0.000000e+00 0
0.000000e+00 0.000000e+00 0
0.000000e+00 0.000000e+00 0
-1.520521e-17 0.000000e+00 0
0.000000e+00 0.000000e+00 0
0.000000e+00 0.000000e+00 0
0.000000e+00 0.000000e+00 0
0.000000e+00 0.000000e+00 0
0.000000e+00 0.000000e+00 0
0.000000e+00 0.000000e+00 0
0.000000e+00 0.000000e+00 0
-5.292185e-18 0.000000e+00 0
0.000000e+00 0.000000e+00 0
0.000000e+00 0.000000e+00 0
0.000000e+00 0.000000e+00 0
0.000000e+00 0.000000e+00 0
0.000000e+00 0.000000e+00 0
0.000000e+00 0.000000e+00 0
0.000000e+00 0.000000e+00 0
0.000000e+00 0.000000e+00 0
0.000000e+00 0.000000e+00 0
0.000000e+00 0.000000e+00 0
0.000000e+00 0.000000e+00 0
0.000000e+00 0.000000e+00 0
0.000000e+00 0.000000e+00 0
0.000000e+00 0.000000e+00 0
0.000000e+00 0.000000e+00 0
0.000000e+00 0.000000e+00 0
0.000000e+00 0.000000e+00 0
0.000000e+00 0.000000e+00 0
0.000000e+00 0.000000e+00 0
0.000000e+00 0.000000e+00 0
0.000000e+00 0.000000e+00 0
0.000000e+00 0.000000e+00 0
0.000000e+00 0.000000e+00 0
0.000000e+00 0.000000e+00 0
0.000000e+00 0.000000e+00 0
0.000000e+00 0.000000e+00 0
0.000000e+00 0.000000e+00 0
0.000000e+00 0.000000e+00 0
0.000000e+00 0.000000e+00 0
0.000000e+00 0.000000e+00 0
0.000000e+00 0.000000e+00 0
0.000000e+00 0.000000e+00 0
0.000000e+00 0.000000e+00 0
0.000000e+00 0.000000e+00 0
0.000000e+00 0.000000e+00 0
0.000000e+00 0.000000e+00 0
0.000000e+00 0.000000e+00 0
0.000000e+00 0.000000e+00 0
0.000000e+00 0.000000e+00 0
0.000000e+00 0.000000e+00 0
0.000000e+00 0.000000e+00 0
0.000000e+00 0.000000e+00 0
0.000000e+00 0.000000e+00 0
0.000000e+00 0.000000e+00 0
0.000000e+00 0.000000e+00 0
0.000000e+00 0.000000e+00 0
0.000000e+00 0.000000e+00 0
0.000000e+00 0.000000e+00 0
0.000000e+00 0.000000e+00 0
0.000000e+00 0.000000e+00 0
0.000000e+00 0.000000e+00 0
0.000000e+00 0.000000e+00 0
0.000000e+00 0.000000e+00 0
0.000000e+00 0.000000e+00 0
0.000000e+00 0.000000e+00 0
0.000000e+00 0.000000e+00 0
0.000000e+00 0.000000e+00 0
0.000000e+00 0.000000e+00 0
0.000000e+00 0.000000e+00 0
0.000000e+00 0.000000e+00 0
0.000000e+00 0.000000e+00 0
0.000000e+00 0.000000e+00 0
0.000000e+00 0.000000e+00 0
0.000000e+00 0.000000e+00 0
0.000000e+00 0.000000e+00 0
0.000000e+00 0.000000e+00 0
0.000000e+00 0.000000e+00 0
0.000000e+00 0.000000e+00 0
0.000000e+00 0.000000e+00 0
0.000000e+00 0.000000e+00 0
0.000000e+00 0.000000e+00 0
0.000000e+00 0.000000e+00 0
0.000000e+00 0.000000e+00 0
0.000000e+00 0.000000e+00 0
0.000000e+00 0.000000e+00 0
0.000000e+00 0.000000e+00 0
0.000000e+00 0.000000e+00 0
0.000000e+00 0.000000e+00 0
0.000000e+00 0.000000e+00 0
0.000000e+00 0.000000e+00 0
0.000000e+00 0.000000e+00 0
0.000000e+00 0.000000e+00 0
0.000000e+00 0.000000e+00 0
0.000000e+00 0.000000e+00 0
0.000000e+00 0.000000e+00 0
0.000000e+00 0.000000e+00 0
0.000000e+00 0.000000e+00 0
0.000000e+00 0.000000e+00 0
0.000000e+00 0.000000e+00 0
0.000000e+00 0.000000e+00 0
0.000000e+00 0.000000e+00 0
0.000000e+00 0.000000e+00 0
0.000000e+00 0.000000e+00 0
0.000000e+00 0.000000e+00 0
0.000000e+00 0.000000e+00 0
0.000000e+00 0.000000e+00 0
1.327538e+00 -9.404224e-05 0
1.327538e+00 -1.018650e-04 0
1.327624e+00 -9.965414e-05 0
1.327693e+00 -6.800782e-05 0
1.327728e+00 -1.918702e-05 0
1.327717e+00 4.068396e-05 0
1.327645e+00 1.142095e-04 0
1.327496e+00 2.056211e-04 0
1.327251e+00 3.178437e-04 0
1.326888e+00 4.539818e-04 0
1.326384e+00 6.174271e-04 0
1.325711e+00 8.118367e-04 0
1.324837e+00 1.041431e-03 0
1.323727e+00 1.311112e-03 0
1.322339e+00 1.626368e-03 0
1.320629e+00 1.993375e-03 0
1.318543e+00 2.419338e-03 0
1.316021e+00 2.912688e-03 0
1.312995e+00 3.483411e-03 0
1.309387e+00 4.143427e-03 0
1.305104e+00 4.906995e-03 0
1.300040e+00 5.791212e-03 0
1.294072e+00 6.816586e-03 0
1.287054e+00 8.006914e-03 0
1.278815e+00 9.388672e-03 0
1.269157e+00 1.098904e-02 0
1.257855e+00 1.282933e-02 0
1.244661e+00 1.491153e-02 0
1.229333e+00 1.719249e-02 0
1.211690e+00 1.953937e-02 0
1.191721e+00 2.166896e-02 0
1.169788e+00 2.310287e-02 0
1.146872e+00 2.323893e-02 0
1.124692e+00 2.168630e-02 0
1.105157e+00 1.870618e-02 0
1.089247e+00 1.505612e-02 0
1.077030e+00 1.143322e-02 0
1.068072e+00 8.241094e-03 0
1.061774e+00 5.620878e-03 0
1.057552e+00 3.553794e-03 0
1.054920e+00 1.938525e-03 0
1.053504e+00 5.486232e-04 0
1.053011e+00 -7.250691e-04 0
1.053257e+00 -1.772440e-03 0
1.054059e+00 -2.544807e-03 0
1.055257e+00 -3.067844e-03 0
1.056710e+00 -3.377700e-03 0
1.058303e+00 -3.512232e-03 0
1.059943e+00 -3.506746e-03 0
1.061553e+00 -3.392263e-03 0
1.063077e+00 -3.195075e-03 0
1.064470e+00 -2.936942e-03 0
1.065699e+00 -2.635585e-03 0
1.066739e+00 -2.305289e-03 0
1.067574e+00 -1.957490e-03 0
1.068196e+00 -1.601054e-03 0
1.068600e+00 -1.242215e-03 0
1.068787e+00 -8.833698e-04 0
1.068780e+00 -5.349534e-04 0
1.068601e+00 -2.256265e-04 0
1.068269e+00 4.930797e-06 0
1.067797e+00 1.672005e-04 0
1.067199e+00 3.023919e-04 0
1.066487e+00 4.229387e-04 0
1.065669e+00 5.334041e-04 0
1.064752e+00 6.358473e-04 0
1.063743e+00 7.313848e-04 0
1.062647e+00 8.207266e-04 0
1.061470e+00 9.043953e-04 0
1.060216e+00 9.828224e-04 0
1.058891e+00 1.056381e-03 0
1.057497e+00 1.125385e-03 0
1.056040e+00 1.190083e-03 0
1.054523e+00 1.250669e-03 0
1.052950e+00 1.307304e-03 0
1.051324e+00 1.360156e-03 0
1.049647e+00 1.409417e-03 0
1.047925e+00 1.455299e-03 0
1.046159e+00 1.498010e-03 0
1.044352e+00 1.537727e-03 0
1.042507e+00 1.574584e-03 0
1.040627e+00 1.608691e-03 0
1.038713e+00 1.640154e-03 0
1.036769e+00 1.669096e-03 0
1.034795e+00 1.695653e-03 0
1.032796e+00 1.719966e-03 0
1.030772e+00 1.742162e-03 0
1.028725e+00 1.762351e-03 0
1.026657e+00 1.780626e-03 0
1.024570e+00 1.797076e-03 0
1.022465e+00 1.811793e-03 0
1.020345e+00 1.824867e-03 0
1.018209e+00 1.836388e-03 0
1.016061e+00 1.846442e-03 0
1.013900e+00 1.855104e-03 0
1.011728e+00 1.862449e-03 0
1.009547e+00 1.868542e-03 0
1.007358e+00 1.873447e-03 0
1.005161e+00 1.877225e-03 0
1.002957e+00 1.879937e-03 0
1.000748e+00 1.881649e-03 0
9.985343e-01 1.882427e-03 0
9.963167e-01 1.882335e-03 0
9.940960e-01 1.881430e-03 0
9.918730e-01 1.879753e-03 0
9.896484e-01 1.877332e-03 0
9.874227e-01 1.874190e-03 0
9.851967e-01 1.870357e-03 0
9.829708e-01 1.865876e-03 0
9.807458e-01 1.860798e-03 0
9.785220e-01 1.855172e-03 0
9.763002e-01 1.849032e-03 0
9.740807e-01 1.842390e-03 0
9.718641e-01 1.835249e-03 0
9.696507e-01 1.827612e-03 0
9.674409e-01 1.819492e-03 0
9.652353e-01 1.810913e-03 0
9.630341e-01 1.801904e-03 0
9.608380e-01 1.792487e-03 0
9.586471e-01 1.782676e-03 0
9.564619e-01 1.772474e-03 0
9.542829e-01 1.761881e-03 0
9.521102e-01 1.750900e-03 0
9.499444e-01 1.739532e-03 0
9.477858e-01 1.727783e-03 0
9.456347e-01 1.715653e-03 0
9.434915e-01 1.703143e-03 0
9.413566e-01 1.690248e-03 0
9.392304e-01 1.676964e-03 0
9.371132e-01 1.663283e-03 0
9.350055e-01 1.649199e-03 0
9.329076e-01 1.634706e-03 0
9.308200e-01 1.619796e-03 0
9.287431e-01 1.604460e-03 0
9.266773e-01 1.588684e-03 0
9.246230e-01 1.572450e-03 0
9.225808e-01 1.555740e-03 0
9.205512e-01 1.538535e-03 0
9.185345e-01 1.520815e-03 0
9.165314e-01 1.502562e-03 0
9.145424e-01 1.483753e-03 0
9.125681e-01 1.464362e-03 0
9.106090e-01 1.444357e-03 0
9.086658e-01 1.423696e-03 0
9.067393e-01 1.402328e-03 0
9.048301e-01 1.380184e-03 0
9.029390e-01 1.357178e-03 0
9.010670e-01 1.333197e-03 0
8.992151e-01 1.308082e-03 0
8.973844e-01 1.281598e-03 0
8.955766e-01 1.253423e-03 0
8.937934e-01 1.223054e-03 0
8.920371e-01 1.189703e-03 0
8.903111e-01 1.152012e-03 0
8.886199e-01 1.107041e-03 0
8.869707e-01 1.050062e-03 0
8.853744e-01 9.154308e-04 0
8.838478e-01 1.179465e-03 0
8.838478e-01 1.545971e-03 0
1.964996e+00 -1.851456e-04 0
1.964996e+00 -1.835164e-04 0
1.965069e+00 -1.629827e-04 0
1.965127e+00 -1.092786e-04 0
1.965164e+00 -2.573866e-05 0
1.965164e+00 8.720145e-05 0
1.965114e+00 2.328409e-04 0
1.964998e+00 4.153524e-04 0
1.964800e+00 6.400000e-04 0
1.964500e+00 9.127468e-04 0
1.964078e+00 1.240146e-03 0
1.963509e+00 1.629701e-03 0
1.962766e+00 2.090059e-03 0
1.961818e+00 2.630906e-03 0
1.960628e+00 3.263109e-03 0
1.959157e+00 3.999175e-03 0
1.957359e+00 4.853594e-03 0
1.955182e+00 5.843314e-03 0
1.952565e+00 6.988368e-03 0
1.949441e+00 8.312668e-03 0
1.945731e+00 9.844910e-03 0
1.941342e+00 1.161982e-02 0
1.936167e+00 1.367880e-02 0
1.930077e+00 1.607058e-02 0
1.922922e+00 1.885094e-02 0
1.914520e+00 2.207837e-02 0
1.904655e+00 2.580312e-02 0
1.893068e+00 3.004248e-02 0
1.879463e+00 3.472949e-02 0
1.863530e+00 3.961828e-02 0
1.845021e+00 4.413701e-02 0
1.823987e+00 4.724068e-02 0
1.801264e+00 4.750052e-02 0
1.779145e+00 4.394048e-02 0
1.760673e+00 3.733567e-02 0
1.746630e+00 2.962612e-02 0
1.736476e+00 2.230312e-02 0
1.729337e+00 1.606999e-02 0
1.724423e+00 1.108097e-02 0
1.721119e+00 7.218303e-03 0
1.718977e+00 4.263788e-03 0
1.717655e+00 2.010518e-03 0
1.716791e+00 2.604471e-04 0
1.716166e+00 -1.103822e-03 0
1.715694e+00 -2.107055e-03 0
1.715321e+00 -2.792293e-03 0
1.715011e+00 -3.209036e-03 0
1.714735e+00 -3.405140e-03 0
1.714470e+00 -3.423740e-03 0
1.714199e+00 -3.302284e-03 0
1.713906e+00 -3.072529e-03 0
1.713577e+00 -2.760955e-03 0
1.713204e+00 -2.389380e-03 0
1.712776e+00 -1.975760e-03 0
1.712286e+00 -1.535112e-03 0
1.711731e+00 -1.080107e-03 0
1.711112e+00 -6.229740e-04 0
1.710442e+00 -1.896792e-04 0
1.709725e+00 1.965053e-04 0
1.708963e+00 5.379968e-04 0
1.708139e+00 8.464697e-04 0
1.707221e+00 1.126339e-03 0
1.706204e+00 1.379683e-03 0
1.705090e+00 1.612095e-03 0
1.703886e+00 1.827568e-03 0
1.702595e+00 2.028658e-03 0
1.701223e+00 2.217045e-03 0
1.699774e+00 2.393922e-03 0
1.698252e+00 2.560209e-03 0
1.696662e+00 2.716661e-03 0
1.695006e+00 2.863915e-03 0
1.693288e+00 3.002509e-03 0
1.691512e+00 3.132890e-03 0
1.689681e+00 3.255446e-03 0
1.687798e+00 3.370533e-03 0
1.685865e+00 3.478511e-03 0
1.683886e+00 3.579748e-03 0
1.681863e+00 3.674609e-03 0
1.679798e+00 3.763432e-03 0
1.677694e+00 3.846513e-03 0
1.675553e+00 3.924111e-03 0
1.673377e+00 3.996465e-03 0
1.671168e+00 4.063817e-03 0
1.668928e+00 4.126416e-03 0
1.666659e+00 4.184512e-03 0
1.664363e+00 4.238345e-03 0
1.662041e+00 4.288135e-03 0
1.659695e+00 4.334082e-03 0
1.657326e+00 4.376376e-03 0
1.654936e+00 4.415197e-03 0
1.652526e+00 4.450724e-03 0
1.650097e+00 4.483130e-03 0
1.647651e+00 4.512578e-03 0
1.645189e+00 4.539224e-03 0
1.642711e+00 4.563217e-03 0
1.640219e+00 4.584693e-03 0
1.637714e+00 4.603785e-03 0
1.635197e+00 4.620615e-03 0
1.632668e+00 4.635305e-03 0
1.630129e+00 4.647973e-03 0
1.627580e+00 4.658742e-03 0
1.625022e+00 4.667728e-03 0
1.622455e+00 4.675040e-03 0
1.619881e+00 4.680771e-03 0
1.617299e+00 4.684997e-03 0
1.614711e+00 4.687781e-03 0
1.612117e+00 4.689191e-03 0
1.609518e+00 4.689297e-03 0
1.606914e+00 4.688180e-03 0
1.604305e+00 4.685921e-03 0
1.601692e+00 4.682582e-03 0
1.599076e+00 4.678208e-03 0
1.596457e+00 4.672826e-03 0
1.593835e+00 4.666457e-03 0
1.591211e+00 4.659130e-03 0
1.588585e+00 4.650882e-03 0
1.585957e+00 4.641753e-03 0
1.583328e+00 4.631780e-03 0
1.580698e+00 4.620987e-03 0
1.578068e+00 4.609390e-03 0
1.575437e+00 4.596996e-03 0
1.572807e+00 4.583811e-03 0
1.570177e+00 4.569845e-03 0
1.567549e+00 4.555102e-03 0
1.564921e+00 4.539585e-03 0
1.562295e+00 4.523292e-03 0
1.559670e+00 4.506216e-03 0
1.557048e+00 4.488346e-03 0
1.554429e+00 4.469671e-03 0
1.551812e+00 4.450175e-03 0
1.549199e+00 4.429844e-03 0
1.546589e+00 4.408659e-03 0
1.543983e+00 4.386599e-03 0
1.541382e+00 4.363638e-03 0
1.538786e+00 4.339742e-03 0
1.536194e+00 4.314879e-03 0
1.533609e+00 4.289010e-03 0
1.531030e+00 4.262097e-03 0
1.528457e+00 4.234099e-03 0
1.525892e+00 4.204973e-03 0
1.523334e+00 4.174667e-03 0
1.520785e+00 4.143125e-03 0
1.518244e+00 4.110274e-03 0
1.515713e+00 4.076028e-03 0
1.513191e+00 4.040280e-03 0
1.510681e+00 4.002895e-03 0
1.508182e+00 3.963700e-03 0
1.505695e+00 3.922463e-03 0
1.503222e+00 3.878856e-03 0
1.500763e+00 3.832435e-03 0
1.498319e+00 3.782541e-03 0
1.495893e+00 3.728210e-03 0
1.493486e+00 3.667959e-03 0
1.491100e+00 3.599390e-03 0
1.488738e+00 3.518542e-03 0
1.486404e+00 3.418634e-03 0
1.484099e+00 3.289361e-03 0
1.481770e+00 3.343808e-03 0
1.481770e+00 3.471735e-03 0
2.258196e+00 -2.776213e-04 0
2.258196e+00 -2.704223e-04 0
2.258278e+00 -2.377244e-04 0
2.258350e+00 -1.676068e-04 0
2.258407e+00 -5.823943e-05 0
2.258439e+00 9.280597e-05 0
2.258438e+00 2.893530e-04 0
2.258392e+00 5.370392e-04 0
2.258290e+00 8.427675e-04 0
2.258119e+00 1.214408e-03 0
2.257863e+00 1.661090e-03 0
2.257505e+00 2.193349e-03 0
2.257025e+00 2.822963e-03 0
2.256401e+00 3.563064e-03 0
2.255606e+00 4.428584e-03 0
2.254612e+00 5.436616e-03 0
2.253386e+00 6.606846e-03 0
2.251892e+00 7.962222e-03 0
2.250088e+00 9.529878e-03 0
2.247927e+00 1.134219e-02 0
2.245356e+00 1.343840e-02 0
2.242311e+00 1.586590e-02 0
2.238720e+00 1.868222e-02 0
2.234495e+00 2.195754e-02 0
2.229529e+00 2.577531e-02 0
2.223686e+00 3.023115e-02 0
2.216787e+00 3.542627e-02 0
2.208581e+00 4.144621e-02 0
2.198701e+00 4.830561e-02 0
2.186603e+00 5.581827e-02 0
2.171503e+00 6.332092e-02 0
2.152498e+00 6.919410e-02 0
2.129439e+00 7.047175e-02 0
2.105853e+00 6.444127e-02 0
2.089050e+00 5.295544e-02 0
2.078638e+00 4.054369e-02 0
2.072468e+00 2.964773e-02 0
2.068823e+00 2.093733e-02 0
2.066650e+00 1.427730e-02 0
2.065351e+00 9.289888e-03 0
2.064581e+00 5.587536e-03 0
2.064121e+00 2.850694e-03 0
2.063830e+00 8.436478e-04 0
2.063574e+00 -6.163546e-04 0
2.063298e+00 -1.655561e-03 0
2.062984e+00 -2.349042e-03 0
2.062628e+00 -2.760180e-03 0
2.062231e+00 -2.942776e-03 0
2.061796e+00 -2.942425e-03 0
2.061327e+00 -2.797568e-03 0
2.060825e+00 -2.540393e-03 0
2.060291e+00 -2.197608e-03 0
2.059726e+00 -1.791143e-03 0
2.059130e+00 -1.339045e-03 0
2.058500e+00 -8.570875e-04 0
2.057840e+00 -3.644020e-04 0
2.057154e+00 1.160179e-04 0
2.056440e+00 5.776262e-04 0
2.055682e+00 1.022811e-03 0
2.054864e+00 1.444757e-03 0
2.053980e+00 1.839141e-03 0
2.053026e+00 2.206035e-03 0
2.052003e+00 2.546876e-03 0
2.050909e+00 2.864515e-03 0
2.049747e+00 3.161683e-03 0
2.048520e+00 3.440570e-03 0
2.047231e+00 3.702868e-03 0
2.045882e+00 3.949914e-03 0
2.044477e+00 4.182804e-03 0
2.043018e+00 4.402469e-03 0
2.041508e+00 4.609701e-03 0
2.039949e+00 4.805177e-03 0
2.038344e+00 4.989486e-03 0
2.036695e+00 5.163157e-03 0
2.035005e+00 5.326695e-03 0
2.033275e+00 5.480605e-03 0
2.031508e+00 5.625382e-03 0
2.029705e+00 5.761500e-03 0
2.027869e+00 5.889392e-03 0
2.026000e+00 6.009443e-03 0
2.024102e+00 6.122011e-03 0
2.022174e+00 6.227440e-03 0
2.020220e+00 6.326073e-03 0
2.018239e+00 6.418256e-03 0
2.016234e+00 6.504321e-03 0
2.014206e+00 6.584583e-03 0
2.012156e+00 6.659333e-03 0
2.010086e+00 6.728845e-03 0
2.007995e+00 6.793380e-03 0
2.005886e+00 6.853188e-03 0
2.003760e+00 6.908514e-03 0
2.001616e+00 6.959592e-03 0
1.999457e+00 7.006644e-03 0
1.997283e+00 7.049883e-03 0
1.995095e+00 7.089508e-03 0
1.992894e+00 7.125708e-03 0
1.990680e+00 7.158661e-03 0
1.988454e+00 7.188538e-03 0
1.986216e+00 7.215504e-03 0
1.983968e+00 7.239724e-03 0
1.981710e+00 7.261361e-03 0
1.979442e+00 7.280566e-03 0
1.977166e+00 7.297477e-03 0
1.974880e+00 7.312213e-03 0
1.972587e+00 7.324875e-03 0
1.970286e+00 7.335560e-03 0
1.967977e+00 7.344366e-03 0
1.965662e+00 7.351401e-03 0
1.963340e+00 7.356773e-03 0
1.961012e+00 7.360576e-03 0
1.958679e+00 7.362882e-03 0
1.956340e+00 7.363744e-03 0
1.953996e+00 7.363202e-03 0
1.951647e+00 7.361298e-03 0
1.949294e+00 7.358082e-03 0
1.946936e+00 7.353610e-03 0
1.944575e+00 7.347930e-03 0
1.942210e+00 7.341080e-03 0
1.939841e+00 7.333087e-03 0
1.937469e+00 7.323966e-03 0
1.935095e+00 7.313732e-03 0
1.932718e+00 7.302396e-03 0
1.930338e+00 7.289970e-03 0
1.927957e+00 7.276459e-03 0
1.925574e+00 7.261862e-03 0
1.923189e+00 7.246175e-03 0
1.920802e+00 7.229384e-03 0
1.918415e+00 7.211475e-03 0
1.916027e+00 7.192430e-03 0
1.913638e+00 7.172230e-03 0
1.911249e+00 7.150849e-03 0
1.908860e+00 7.128260e-03 0
1.906471e+00 7.104428e-03 0
1.904083e+00 7.079313e-03 0
1.901696e+00 7.052868e-03 0
1.899311e+00 7.025046e-03 0
1.896926e+00 6.995794e-03 0
1.894544e+00 6.965058e-03 0
1.892164e+00 6.932782e-03 0
1.889787e+00 6.898902e-03 0
1.887413e+00 6.863346e-03 0
1.885043e+00 6.826029e-03 0
1.882676e+00 6.786851e-03 0
1.880314e+00 6.745696e-03 0
1.877957e+00 6.702420e-03 0
1.875605e+00 6.656842e-03 0
1.873259e+00 6.608734e-03 0
1.870919e+00 6.557786e-03 0
1.868587e+00 6.503586e-03 0
1.866262e+00 6.445557e-03 0
1.863946e+00 6.382884e-03 0
1.861639e+00 6.314412e-03 0
1.859342e+00 6.238458e-03 0
1.857056e+00 6.152582e-03 0
1.854781e+00 6.053358e-03 0
1.852516e+00 5.936635e-03 0
1.850259e+00 5.796921e-03 0
1.848000e+00 5.681183e-03 0
1.848000e+00 5.641883e-03 0
2.404085e+00 -3.759693e-04 0
2.404085e+00 -3.660337e-04 0
2.404178e+00 -3.261946e-04 0
2.404265e+00 -2.450243e-04 0
2.404343e+00 -1.193013e-04 0
2.404406e+00 5.478211e-05 0
2.404449e+00 2.824847e-04 0
2.404467e+00 5.707330e-04 0
2.404450e+00 9.275321e-04 0
2.404390e+00 1.362430e-03 0
2.404277e+00 1.886550e-03 0
2.404098e+00 2.512367e-03 0
2.403839e+00 3.253732e-03 0
2.403484e+00 4.126233e-03 0
2.403017e+00 5.147444e-03 0
2.402416e+00 6.337240e-03 0
2.401660e+00 7.718323e-03 0
2.400725e+00 9.317069e-03 0
2.399585e+00 1.116445e-02 0
2.398210e+00 1.329762e-02 0
2.396569e+00 1.576127e-02 0
2.394626e+00 1.860995e-02 0
2.392341e+00 2.191174e-02 0
2.389664e+00 2.575155e-02 0
2.386536e+00 3.023593e-02 0
2.382874e+00 3.549981e-02 0
2.378555e+00 4.171433e-02 0
2.373374e+00 4.909257e-02 0
2.366958e+00 5.787888e-02 0
2.358580e+00 6.826731e-02 0
2.346779e+00 8.006114e-02 0
2.328758e+00 9.154775e-02 0
2.300274e+00 9.663339e-02 0
2.266133e+00 8.648301e-02 0
2.250369e+00 6.600129e-02 0
2.245037e+00 4.709300e-02 0
2.244038e+00 3.264244e-02 0
2.244549e+00 2.219865e-02 0
2.245451e+00 1.473804e-02 0
2.246343e+00 9.396708e-03 0
2.247098e+00 5.558817e-03 0
2.247677e+00 2.802381e-03 0
2.248070e+00 8.372842e-04 0
2.248299e+00 -5.437523e-04 0
2.248370e+00 -1.486117e-03 0
2.248302e+00 -2.086525e-03 0
2.248116e+00 -2.415905e-03 0
2.247834e+00 -2.529443e-03 0
2.247472e+00 -2.471594e-03 0
2.247045e+00 -2.278828e-03 0
2.246567e+00 -1.981289e-03 0
2.246045e+00 -1.603821e-03 0
2.245487e+00 -1.166381e-03 0
2.244898e+00 -6.840948e-04 0
2.244279e+00 -1.768244e-04 0
2.243635e+00 3.370760e-04 0
2.242961e+00 8.517354e-04 0
2.242248e+00 1.360963e-03 0
2.241494e+00 1.856193e-03 0
2.240698e+00 2.331329e-03 0
2.239857e+00 2.782608e-03 0
2.238968e+00 3.208748e-03 0
2.238030e+00 3.610023e-03 0
2.237042e+00 3.987747e-03 0
2.236005e+00 4.343569e-03 0
2.234919e+00 4.679088e-03 0
2.233788e+00 4.995735e-03 0
2.232612e+00 5.294767e-03 0
2.231393e+00 5.577290e-03 0
2.230134e+00 5.844275e-03 0
2.228837e+00 6.096575e-03 0