<?xml version="1.0"?>
<VTKFile type="StructuredGrid">
<StructuredGrid WholeExtent="0 158 0 30 0 0 ">
<Piece Extent="0 158 0 30 0 0 ">
<Points>
<DataArray type="Float64" format="ascii" NumberOfComponents="3">
0.000000e+00 0.000000e+00 0.000000e+00
3.164557e-02 0.000000e+00 0.000000e+00
6.329114e-02 0.000000e+00 0.000000e+00
9.493671e-02 0.000000e+00 0.000000e+00
1.265823e-01 0.000000e+00 0.000000e+00
1.582278e-01 0.000000e+00 0.000000e+00
1.898734e-01 0.000000e+00 0.000000e+00
2.215190e-01 0.000000e+00 0.000000e+00
2.531646e-01 0.000000e+00 0.000000e+00
2.848101e-01 0.000000e+00 0.000000e+00
3.164557e-01 0.000000e+00 0.000000e+00
3.481013e-01 0.000000e+00 0.000000e+00
3.797468e-01 0.000000e+00 0.000000e+00
4.113924e-01 0.000000e+00 0.000000e+00
4.430380e-01 0.000000e+00 0.000000e+00
4.746835e-01 0.000000e+00 0.000000e+00
5.063291e-01 0.000000e+00 0.000000e+00
5.379747e-01 0.000000e+00 0.000000e+00
5.696203e-01 0.000000e+00 0.000000e+00
6.012658e-01 0.000000e+00 0.000000e+00
6.329114e-01 0.000000e+00 0.000000e+00
6.645570e-01 0.000000e+00 0.000000e+00
6.962025e-01 0.000000e+00 0.000000e+00
7.278481e-01 0.000000e+00 0.000000e+00
7.594937e-01 0.000000e+00 0.000000e+00
7.911392e-01 0.000000e+00 0.000000e+00
8.227848e-01 0.000000e+00 0.000000e+00
8.544304e-01 0.000000e+00 0.000000e+00
8.860759e-01 0.000000e+00 0.000000e+00
9.177215e-01 0.000000e+00 0.000000e+00
9.493671e-01 0.000000e+00 0.000000e+00
9.810127e-01 0.000000e+00 0.000000e+00
1.012658e+00 0.000000e+00 0.000000e+00
1.044304e+00 0.000000e+00 0.000000e+00
1.075949e+00 0.000000e+00 0.000000e+00
1.107595e+00 0.000000e+00 0.000000e+00
1.139241e+00 0.000000e+00 0.000000e+00
1.170886e+00 0.000000e+00 0.000000e+00
1.202532e+00 0.000000e+00 0.000000e+00
1.234177e+00 0.000000e+00 0.000000e+00
1.265823e+00 0.000000e+00 0.000000e+00
1.297468e+00 0.000000e+00 0.000000e+00
1.329114e+00 0.000000e+00 0.000000e+00
1.360759e+00 0.000000e+00 0.000000e+00
1.392405e+00 0.000000e+00 0.000000e+00
1.424051e+00 0.000000e+00 0.000000e+00
1.455696e+00 0.000000e+00 0.000000e+00
1.487342e+00 0.000000e+00 0.000000e+00
1.518987e+00 0.000000e+00 0.000000e+00
1.550633e+00 0.000000e+00 0.000000e+00
1.582278e+00 0.000000e+00 0.000000e+00
1.613924e+00 0.000000e+00 0.000000e+00
1.645570e+00 0.000000e+00 0.000000e+00
1.677215e+00 0.000000e+00 0.000000e+00
1.708861e+00 0.000000e+00 0.000000e+00
1.740506e+00 0.000000e+00 0.000000e+00
1.772152e+00 0.000000e+00 0.000000e+00
1.803797e+00 0.000000e+00 0.000000e+00
1.835443e+00 0.000000e+00 0.000000e+00
1.867089e+00 0.000000e+00 0.000000e+00
1.898734e+00 0.000000e+00 0.000000e+00
1.930380e+00 0.000000e+00 0.000000e+00
1.962025e+00 0.000000e+00 0.000000e+00
1.993671e+00 0.000000e+00 0.000000e+00
2.025316e+00 0.000000e+00 0.000000e+00
2.056962e+00 0.000000e+00 0.000000e+00
2.088608e+00 0.000000e+00 0.000000e+00
2.120253e+00 0.000000e+00 0.000000e+00
2.151899e+00 0.000000e+00 0.000000e+00
2.183544e+00 0.000000e+00 0.000000e+00
2.215190e+00 0.000000e+00 0.000000e+00
2.246835e+00 0.000000e+00 0.000000e+00
2.278481e+00 0.000000e+00 0.000000e+00
2.310127e+00 0.000000e+00 0.000000e+00
2.341772e+00 0.000000e+00 0.000000e+00
2.373418e+00 0.000000e+00 0.000000e+00
2.405063e+00 0.000000e+00 0.000000e+00
2.436709e+00 0.000000e+00 0.000000e+00
2.468354e+00 0.000000e+00 0.000000e+00
2.500000e+00 0.000000e+00 0.000000e+00
2.531646e+00 0.000000e+00 0.000000e+00
2.563291e+00 0.000000e+00 0.000000e+00
2.594937e+00 0.000000e+00 0.000000e+00
2.626582e+00 0.000000e+00 0.000000e+00
2.658228e+00 0.000000e+00 0.000000e+00
2.689873e+00 0.000000e+00 0.000000e+00
2.721519e+00 0.000000e+00 0.000000e+00
2.753165e+00 0.000000e+00 0.000000e+00
2.784810e+00 0.000000e+00 0.000000e+00
2.816456e+00 0.000000e+00 0.000000e+00
2.848101e+00 0.000000e+00 0.000000e+00
2.879747e+00 0.000000e+00 0.000000e+00
2.911392e+00 0.000000e+00 0.000000e+00
2.943038e+00 0.000000e+00 0.000000e+00
2.974684e+00 0.000000e+00 0.000000e+00
3.006329e+00 0.000000e+00 0.000000e+00
3.037975e+00 0.000000e+00 0.000000e+00
3.069620e+00 0.000000e+00 0.000000e+00
3.101266e+00 0.000000e+00 0.000000e+00
3.132911e+00 0.000000e+00 0.000000e+00
3.164557e+00 0.000000e+00 0.000000e+00
3.196203e+00 0.000000e+00 0.000000e+00
3.227848e+00 0.000000e+00 0.000000e+00
3.259494e+00 0.000000e+00 0.000000e+00
3.291139e+00 0.000000e+00 0.000000e+00
3.322785e+00 0.000000e+00 0.000000e+00
3.354430e+00 0.000000e+00 0.000000e+00
3.386076e+00 0.000000e+00 0.000000e+00
3.417722e+00 0.000000e+00 0.000000e+00
3.449367e+00 0.000000e+00 0.000000e+00
3.481013e+00 0.000000e+00 0.000000e+00
3.512658e+00 0.000000e+00 0.000000e+00
3.544304e+00 0.000000e+00 0.000000e+00
3.575949e+00 0.000000e+00 0.000000e+00
3.607595e+00 0.000000e+00 0.000000e+00
3.639241e+00 0.000000e+00 0.000000e+00
3.670886e+00 0.000000e+00 0.000000e+00
3.702532e+00 0.000000e+00 0.000000e+00
3.734177e+00 0.000000e+00 0.000000e+00
3.765823e+00 0.000000e+00 0.000000e+00
3.797468e+00 0.000000e+00 0.000000e+00
3.829114e+00 0.000000e+00 0.000000e+00
3.860759e+00 0.000000e+00 0.000000e+00
3.892405e+00 0.000000e+00 0.000000e+00
3.924051e+00 0.000000e+00 0.000000e+00
3.955696e+00 0.000000e+00 0.000000e+00
3.987342e+00 0.000000e+00 0.000000e+00
4.018987e+00 0.000000e+00 0.000000e+00
4.050633e+00 0.000000e+00 0.000000e+00
4.082278e+00 0.000000e+00 0.000000e+00
4.113924e+00 0.000000e+00 0.000000e+00
4.145570e+00 0.000000e+00 0.000000e+00
4.177215e+00 0.000000e+00 0.000000e+00
4.208861e+00 0.000000e+00 0.000000e+00
4.240506e+00 0.000000e+00 0.000000e+00
4.272152e+00 0.000000e+00 0.000000e+00
4.303797e+00 0.000000e+00 0.000000e+00
4.335443e+00 0.000000e+00 0.000000e+00
4.367089e+00 0.000000e+00 0.000000e+00
4.398734e+00 0.000000e+00 0.000000e+00
4.430380e+00 0.000000e+00 0.000000e+00
4.462025e+00 0.000000e+00 0.000000e+00
4.493671e+00 0.000000e+00 0.000000e+00
4.525316e+00 0.000000e+00 0.000000e+00
4.556962e+00 0.000000e+00 0.000000e+00
4.588608e+00 0.000000e+00 0.000000e+00
4.620253e+00 0.000000e+00 0.000000e+00
4.651899e+00 0.000000e+00 0.000000e+00
4.683544e+00 0.000000e+00 0.000000e+00
4.715190e+00 0.000000e+00 0.000000e+00
4.746835e+00 0.000000e+00 0.000000e+00
4.778481e+00 0.000000e+00 0.000000e+00
4.810127e+00 0.000000e+00 0.000000e+00
4.841772e+00 0.000000e+00 0.000000e+00
4.873418e+00 0.000000e+00 0.000000e+00
4.905063e+00 0.000000e+00 0.000000e+00
4.936709e+00 0.000000e+00 0.000000e+00
4.968354e+00 0.000000e+00 0.000000e+00
5.000000e+00 0.000000e+00 0.000000e+00
0.000000e+00 3.333333e-02 0.000000e+00
3.164557e-02 3.333333e-02 0.000000e+00
6.329114e-02 3.333333e-02 0.000000e+00
9.493671e-02 3.333333e-02 0.000000e+00
1.265823e-01 3.333333e-02 0.000000e+00
1.582278e-01 3.333333e-02 0.000000e+00
1.898734e-01 3.333333e-02 0.000000e+00
2.215190e-01 3.333333e-02 0.000000e+00
2.531646e-01 3.333333e-02 0.000000e+00
2.848101e-01 3.333333e-02 0.000000e+00
3.164557e-01 3.333333e-02 0.000000e+00
3.481013e-01 3.333333e-02 0.000000e+00
3.797468e-01 3.333333e-02 0.000000e+00
4.113924e-01 3.333333e-02 0.000000e+00
4.430380e-01 3.333333e-02 0.000000e+00
4.746835e-01 3.333333e-02 0.000000e+00
5.063291e-01 3.333333e-02 0.000000e+00
5.379747e-01 3.333333e-02 0.000000e+00
5.696203e-01 3.333333e-02 0.000000e+00
6.012658e-01 3.333333e-02 0.000000e+00
6.329114e-01 3.333333e-02 0.000000e+00
6.645570e-01 3.333333e-02 0.000000e+00
6.962025e-01 3.333333e-02 0.000000e+00
7.278481e-01 3.333333e-02 0.000000e+00
7.594937e-01 3.333333e-02 0.000000e+00
7.911392e-01 3.333333e-02 0.000000e+00
8.227848e-01 3.333333e-02 0.000000e+00
8.544304e-01 3.333333e-02 0.000000e+00
8.860759e-01 3.333333e-02 0.000000e+00
9.177215e-01 3.333333e-02 0.000000e+00
9.493671e-01 3.333333e-02 0.000000e+00
9.810127e-01 3.333333e-02 0.000000e+00
1.012658e+00 3.333333e-02 0.000000e+00
1.044304e+00 3.333333e-02 0.000000e+00
1.075949e+00 3.333333e-02 0.000000e+00
1.107595e+00 3.333333e-02 0.000000e+00
1.139241e+00 3.333333e-02 0.000000e+00
1.170886e+00 3.333333e-02 0.000000e+00
1.202532e+00 3.333333e-02 0.000000e+00
1.234177e+00 3.333333e-02 0.000000e+00
1.265823e+00 3.333333e-02 0.000000e+00
1.297468e+00 3.333333e-02 0.000000e+00
1.329114e+00 3.333333e-02 0.000000e+00
1.360759e+00 3.333333e-02 0.000000e+00
1.392405e+00 3.333333e-02 0.000000e+00
1.424051e+00 3.333333e-02 0.000000e+00
1.455696e+00 3.333333e-02 0.000000e+00
1.487342e+00 3.333333e-02 0.000000e+00
1.518987e+00 3.333333e-02 0.000000e+00
1.550633e+00 3.333333e-02 0.000000e+00
1.582278e+00 3.333333e-02 0.000000e+00
1.613924e+00 3.333333e-02 0.000000e+00
1.645570e+00 3.333333e-02 0.000000e+00
1.677215e+00 3.333333e-02 0.000000e+00
1.708861e+00 3.333333e-02 0.000000e+00
1.740506e+00 3.333333e-02 0.000000e+00
1.772152e+00 3.333333e-02 0.000000e+00
1.803797e+00 3.333333e-02 0.000000e+00
1.835443e+00 3.333333e-02 0.000000e+00
1.867089e+00 3.333333e-02 0.000000e+00
1.898734e+00 3.333333e-02 0.000000e+00
1.930380e+00 3.333333e-02 0.000000e+00
1.962025e+00 3.333333e-02 0.000000e+00
1.993671e+00 3.333333e-02 0.000000e+00
2.025316e+00 3.333333e-02 0.000000e+00
2.056962e+00 3.333333e-02 0.000000e+00
2.088608e+00 3.333333e-02 0.000000e+00
2.120253e+00 3.333333e-02 0.000000e+00
2.151899e+00 3.333333e-02 0.000000e+00
2.183544e+00 3.333333e-02 0.000000e+00
2.215190e+00 3.333333e-02 0.000000e+00
2.246835e+00 3.333333e-02 0.000000e+00
2.278481e+00 3.333333e-02 0.000000e+00
2.310127e+00 3.333333e-02 0.000000e+00
2.341772e+00 3.333333e-02 0.000000e+00
2.373418e+00 3.333333e-02 0.000000e+00
2.405063e+00 3.333333e-02 0.000000e+00
2.436709e+00 3.333333e-02 0.000000e+00
2.468354e+00 3.333333e-02 0.000000e+00
2.500000e+00 3.333333e-02 0.000000e+00
2.531646e+00 3.333333e-02 0.000000e+00
2.563291e+00 3.333333e-02 0.000000e+00
2.594937e+00 3.333333e-02 0.000000e+00
2.626582e+00 3.333333e-02 0.000000e+00
2.658228e+00 3.333333e-02 0.000000e+00
2.689873e+00 3.333333e-02 0.000000e+00
2.721519e+00 3.333333e-02 0.000000e+00
2.753165e+00 3.333333e-02 0.000000e+00
2.784810e+00 3.333333e-02 0.000000e+00
2.816456e+00 3.333333e-02 0.000000e+00
2.848101e+00 3.333333e-02 0.000000e+00
2.879747e+00 3.333333e-02 0.000000e+00
[...]
<PointData>
<DataArray Name="Velocity" type="Float64" format="ascii" NumberOfComponents="3">
0.000000e+00 0.000000e+00 0
0.000000e+00 0.000000e+00 0
0.000000e+00 0.000000e+00 0
0.000000e+00 0.000000e+00 0
0.000000e+00 0.000000e+00 0
0.000000e+00 0.000000e+00 0
0.000000e+00 0.000000e+00 0
0.000000e+00 0.000000e+00 0
0.000000e+00 0.000000e+00 0
0.000000e+00 0.000000e+00 0
0.000000e+00 0.000000e+00 0
0.000000e+00 0.000000e+00 0
0.000000e+00 0.000000e+00 0
0.000000e+00 0.000000e+00 0
0.000000e+00 0.000000e+00 0
0.000000e+00 0.000000e+00 0
0.000000e+00 0.000000e+00 0
0.000000e+00 0.000000e+00 0
0.000000e+00 0.000000e+00 0
-1.646705e-18 0.000000e+00 0
0.000000e+00 0.000000e+00 0
0.000000e+00 0.000000e+00 0
0.000000e+00 0.000000e+00 0
-4.042137e-19 0.000000e+00 0
0.000000e+00 0.000000e+00 0
0.000000e+00 0.000000e+00 0
0.000000e+00 0.000000e+00 0
7.713340e-18 0.000000e+00 0
0.000000e+00 0.000000e+00 0
0.000000e+00 0.000000e+00 0
0.000000e+00 0.000000e+00 0
3.604231e-18 0.000000e+00 0
0.000000e+00 0.000000e+00 0
0.000000e+00 0.000000e+00 0
0.000000e+00 0.000000e+00 0
0.000000e+00 0.000000e+00 0
0.000000e+00 0.000000e+00 0
0.000000e+00 0.000000e+00 0
-8.678360e-18 0.000000e+00 0
0.000000e+00 0.000000e+00 0
0.000000e+00 0.000000e+00 0
0.000000e+00 0.000000e+00 0
0.000000e+00 0.000000e+00 0
0.000000e+00 0.000000e+00 0
0.000000e+00 0.000000e+00 0
0.000000e+00 0.000000e+00 0
-9.036037e-18 0.000000e+00 0
0.000000e+00 0.000000e+00 0
0.000000e+00 0.000000e+00 0
0.000000e+00 0.000000e+00 0
0.000000e+00 0.000000e+00 0
0.000000e+00 0.000000e+00 0
0.000000e+00 0.000000e+00 0
0.000000e+00 0.000000e+00 0
1.193545e-17 0.000000e+00 0
0.000000e+00 0.000000e+00 0
0.000000e+00 0.000000e+00 0
0.000000e+00 0.000000e+00 0
0.000000e+00 0.000000e+00 0
0.000000e+00 0.000000e+00 0
0.000000e+00 0.000000e+00 0
0.000000e+00 0.000000e+00 0
-2.553334e-17 0.000000e+00 0
0.000000e+00 0.000000e+00 0
0.000000e+00 0.000000e+00 0
0.000000e+00 0.000000e+00 0
0.000000e+00 0.000000e+00 0
0.000000e+00 0.000000e+00 0
0.000000e+00 0.000000e+00 0
0.000000e+00 0.000000e+00 0
0.000000e+00 0.000000e+00 0
0.000000e+00 0.000000e+00 0
0.000000e+00 0.000000e+00 0
0.000000e+00 0.000000e+00 0
0.000000e+00 0.000000e+00 0
0.000000e+00 0.000000e+00 0
0.000000e+00 0.000000e+00 0
0.000000e+00 0.000000e+00 0
0.000000e+00 0.000000e+00 0
0.000000e+00 0.000000e+00 0
0.000000e+00 0.000000e+00 0
0.000000e+00 0.000000e+00 0
0.000000e+00 0.000000e+00 0
0.000000e+00 0.000000e+00 0
0.000000e+00 0.000000e+00 0
0.000000e+00 0.000000e+00 0
0.000000e+00 0.000000e+00 0
0.000000e+00 0.000000e+00 0
0.000000e+00 0.000000e+00 0
0.000000e+00 0.000000e+00 0
0.000000e+00 0.000000e+00 0
0.000000e+00 0.000000e+00 0
0.000000e+00 0.000000e+00 0
0.000000e+00 0.000000e+00 0
0.000000e+00 0.000000e+00 0
0.000000e+00 0.000000e+00 0
0.000000e+00 0.000000e+00 0
0.000000e+00 0.000000e+00 0
0.000000e+00 0.000000e+00 0
0.000000e+00 0.000000e+00 0
0.000000e+00 0.000000e+00 0
0.000000e+00 0.000000e+00 0
0.000000e+00 0.000000e+00 0
0.000000e+00 0.000000e+00 0
0.000000e+00 0.000000e+00 0
0.000000e+00 0.000000e+00 0
0.000000e+00 0.000000e+00 0
0.000000e+00 0.000000e+00 0
0.000000e+00 0.000000e+00 0
0.000000e+00 0.000000e+00 0
0.000000e+00 0.000000e+00 0
0.000000e+00 0.000000e+00 0
0.000000e+00 0.000000e+00 0
0.000000e+00 0.000000e+00 0
0.000000e+00 0.000000e+00 0
0.000000e+00 0.000000e+00 0
0.000000e+00 0.000000e+00 0
0.000000e+00 0.000000e+00 0
0.000000e+00 0.000000e+00 0
0.000000e+00 0.000000e+00 0
0.000000e+00 0.000000e+00 0
0.000000e+00 0.000000e+00 0
0.000000e+00 0.000000e+00 0
0.000000e+00 0.000000e+00 0
0.000000e+00 0.000000e+00 0
0.000000e+00 0.000000e+00 0
0.000000e+00 0.000000e+00 0
0.000000e+00 0.000000e+00 0
0.000000e+00 0.000000e+00 0
0.000000e+00 0.000000e+00 0
0.000000e+00 0.000000e+00 0
0.000000e+00 0.000000e+00 0
0.000000e+00 0.000000e+00 0
0.000000e+00 0.000000e+00 0
0.000000e+00 0.000000e+00 0
0.000000e+00 0.000000e+00 0
0.000000e+00 0.000000e+00 0
0.000000e+00 0.000000e+00 0
0.000000e+00 0.000000e+00 0
0.000000e+00 0.000000e+00 0
0.000000e+00 0.000000e+00 0
0.000000e+00 0.000000e+00 0
0.000000e+00 0.000000e+00 0
0.000000e+00 0.000000e+00 0
0.000000e+00 0.000000e+00 0
0.000000e+00 0.000000e+00 0
0.000000e+00 0.000000e+00 0
0.000000e+00 0.000000e+00 0
0.000000e+00 0.000000e+00 0
0.000000e+00 0.000000e+00 0
0.000000e+00 0.000000e+00 0
0.000000e+00 0.000000e+00 0
0.000000e+00 0.000000e+00 0
0.000000e+00 0.000000e+00 0
0.000000e+00 0.000000e+00 0
0.000000e+00 0.000000e+00 0
0.000000e+00 0.000000e+00 0
0.000000e+00 0.000000e+00 0
0.000000e+00 0.000000e+00 0
1.128838e+00 -1.202010e-04 0
1.128838e+00 -1.299697e-04 0
1.128948e+00 -1.284708e-04 0
1.129039e+00 -9.224094e-05 0
1.129092e+00 -3.490619e-05 0
1.129092e+00 3.526334e-05 0
1.129022e+00 1.198404e-04 0
1.128864e+00 2.244157e-04 0
1.128596e+00 3.528054e-04 0
1.128194e+00 5.086788e-04 0
1.127630e+00 6.960203e-04 0
1.126872e+00 9.192978e-04 0
1.125883e+00 1.183564e-03 0
1.124622e+00 1.494559e-03 0
1.123041e+00 1.858837e-03 0
1.121086e+00 2.283939e-03 0
1.118695e+00 2.778626e-03 0
1.115798e+00 3.353181e-03 0
1.112312e+00 4.019788e-03 0
1.108145e+00 4.793011e-03 0
1.103185e+00 5.690338e-03 0
1.097306e+00 6.732771e-03 0
1.090359e+00 7.945327e-03 0
1.082166e+00 9.357185e-03 0
1.072521e+00 1.100088e-02 0
1.061183e+00 1.290933e-02 0
1.047879e+00 1.510836e-02 0
1.032307e+00 1.760056e-02 0
1.014173e+00 2.033416e-02 0
9.932524e-01 2.315015e-02 0
9.695293e-01 2.571017e-02 0
9.434288e-01 2.744308e-02 0
9.161204e-01 2.762799e-02 0
8.896551e-01 2.578809e-02 0
8.663348e-01 2.222638e-02 0
8.473481e-01 1.784995e-02 0
8.327847e-01 1.349818e-02 0
8.221281e-01 9.658229e-03 0
8.146636e-01 6.499920e-03 0
8.096996e-01 3.996794e-03 0
8.066594e-01 2.013083e-03 0
8.051096e-01 1.665047e-04 0
8.046967e-01 -1.561381e-03 0
8.052143e-01 -2.892098e-03 0
8.064222e-01 -3.841180e-03 0
8.081086e-01 -4.454199e-03 0
8.100943e-01 -4.787051e-03 0
8.122324e-01 -4.895459e-03 0
8.144053e-01 -4.829856e-03 0
8.165208e-01 -4.633358e-03 0
8.185085e-01 -4.341433e-03 0
8.203156e-01 -3.982476e-03 0
8.219035e-01 -3.578809e-03 0
8.232454e-01 -3.147859e-03 0
8.243238e-01 -2.702973e-03 0
8.251291e-01 -2.253495e-03 0
8.256568e-01 -1.805706e-03 0
8.259118e-01 -1.360389e-03 0
8.259192e-01 -9.230757e-04 0
8.257099e-01 -5.198231e-04 0
8.253058e-01 -1.850429e-04 0
8.247259e-01 5.987766e-05 0
8.239865e-01 2.387156e-04 0
8.231033e-01 3.895806e-04 0
8.220890e-01 5.243049e-04 0
8.209537e-01 6.473978e-04 0
8.197060e-01 7.609797e-04 0
8.183533e-01 8.662626e-04 0
8.169023e-01 9.640876e-04 0
8.153591e-01 1.055148e-03 0
8.137291e-01 1.140070e-03 0
8.120176e-01 1.219409e-03 0
8.102291e-01 1.293635e-03 0
8.083680e-01 1.363110e-03 0
8.064385e-01 1.428104e-03 0
8.044445e-01 1.488817e-03 0
8.023897e-01 1.545417e-03 0
8.002777e-01 1.598055e-03 0
7.981119e-01 1.646888e-03 0
7.958958e-01 1.692076e-03 0
7.936322e-01 1.733782e-03 0
7.913244e-01 1.772170e-03 0
7.889750e-01 1.807402e-03 0
7.865868e-01 1.839634e-03 0
7.841623e-01 1.869015e-03 0
7.817039e-01 1.895688e-03 0
7.792140e-01 1.919785e-03 0
7.766947e-01 1.941428e-03 0
7.741482e-01 1.960727e-03 0
7.715766e-01 1.977772e-03 0
7.689817e-01 1.992641e-03 0
7.663655e-01 2.005396e-03 0
7.637299e-01 2.016086e-03 0
7.610765e-01 2.024756e-03 0
7.584073e-01 2.031455e-03 0
7.557239e-01 2.036240e-03 0
7.530279e-01 2.039183e-03 0
7.503209e-01 2.040373e-03 0
7.476045e-01 2.039916e-03 0
7.448800e-01 2.037925e-03 0
7.421487e-01 2.034516e-03 0
7.394121e-01 2.029797e-03 0
7.366711e-01 2.023864e-03 0
7.339270e-01 2.016794e-03 0
7.311809e-01 2.008643e-03 0
7.284337e-01 1.999451e-03 0
7.256865e-01 1.989237e-03 0
7.229403e-01 1.978007e-03 0
7.201962e-01 1.965760e-03 0
7.174551e-01 1.952485e-03 0
7.147181e-01 1.938163e-03 0
7.119863e-01 1.922775e-03 0
7.092607e-01 1.906294e-03 0
7.065424e-01 1.888693e-03 0
7.038327e-01 1.869943e-03 0
7.011326e-01 1.850017e-03 0
6.984434e-01 1.828893e-03 0
6.957664e-01 1.806560e-03 0
6.931027e-01 1.783016e-03 0
6.904535e-01 1.758271e-03 0
6.878202e-01 1.732347e-03 0
6.852040e-01 1.705273e-03 0
6.826060e-01 1.677082e-03 0
6.800276e-01 1.647804e-03 0
6.774699e-01 1.617458e-03 0
6.749342e-01 1.586052e-03 0
6.724216e-01 1.553574e-03 0
6.699336e-01 1.519996e-03 0
6.674714e-01 1.485271e-03 0
6.650362e-01 1.449339e-03 0
6.626297e-01 1.412131e-03 0
6.602530e-01 1.373579e-03 0
6.579079e-01 1.333617e-03 0
6.555957e-01 1.292193e-03 0
6.533180e-01 1.249271e-03 0
6.510763e-01 1.204839e-03 0
6.488721e-01 1.158912e-03 0
6.467070e-01 1.111532e-03 0
6.445824e-01 1.062774e-03 0
6.424994e-01 1.012741e-03 0
6.404595e-01 9.615713e-04 0
6.384638e-01 9.094305e-04 0
6.365130e-01 8.565140e-04 0
6.346082e-01 8.030423e-04 0
6.327498e-01 7.492577e-04 0
6.309382e-01 6.954202e-04 0
6.291738e-01 6.418009e-04 0
6.274566e-01 5.886711e-04 0
6.257863e-01 5.362870e-04 0
6.241626e-01 4.849087e-04 0
6.225849e-01 4.349782e-04 0
6.210521e-01 3.875841e-04 0
6.195627e-01 3.447790e-04 0
6.181147e-01 3.080725e-04 0
6.167062e-01 2.745571e-04 0
6.153348e-01 2.409098e-04 0
6.139905e-01 1.723203e-04 0
6.126486e-01 8.537934e-04 0
6.126486e-01 1.586956e-03 0
1.634459e+00 -2.364618e-04 0
1.634459e+00 -2.349905e-04 0
1.634553e+00 -2.122955e-04 0
1.634631e+00 -1.513916e-04 0
1.634684e+00 -5.560511e-05 0
1.634698e+00 7.391371e-05 0
1.634656e+00 2.403281e-04 0
1.634538e+00 4.488232e-04 0
1.634328e+00 7.055891e-04 0
1.634002e+00 1.017629e-03 0
1.633537e+00 1.392866e-03 0
1.632905e+00 1.840272e-03 0
1.632074e+00 2.370017e-03 0
1.631007e+00 2.993646e-03 0
1.629664e+00 3.724340e-03 0
1.627997e+00 4.577260e-03 0
1.625952e+00 5.570011e-03 0
1.623467e+00 6.723259e-03 0
1.620473e+00 8.061514e-03 0
1.616887e+00 9.614100e-03 0
1.612615e+00 1.141632e-02 0
1.607547e+00 1.351070e-02 0
1.601553e+00 1.594824e-02 0
1.594477e+00 1.878901e-02 0
1.586137e+00 2.210124e-02 0
1.576311e+00 2.595649e-02 0
1.564734e+00 3.041658e-02 0
1.551092e+00 3.550342e-02 0
1.535023e+00 4.113747e-02 0
1.516142e+00 4.702450e-02 0
1.494147e+00 5.248080e-02 0
1.469088e+00 5.625730e-02 0
1.441958e+00 5.664152e-02 0
1.415484e+00 5.244081e-02 0
1.393349e+00 4.456330e-02 0
1.376501e+00 3.533938e-02 0
1.364295e+00 2.656502e-02 0
1.355685e+00 1.908745e-02 0
1.349727e+00 1.309127e-02 0
1.345692e+00 8.431015e-03 0
1.343043e+00 4.834694e-03 0
1.341362e+00 2.067238e-03 0
1.340102e+00 -1.104164e-04 0
1.339092e+00 -1.817650e-03 0
1.338252e+00 -3.048787e-03 0
1.337533e+00 -3.868109e-03 0
1.336896e+00 -4.343913e-03 0
1.336311e+00 -4.541001e-03 0
1.335751e+00 -4.517216e-03 0
1.335193e+00 -4.322189e-03 0
1.334618e+00 -3.997290e-03 0
1.334006e+00 -3.576247e-03 0
1.333341e+00 -3.086242e-03 0
1.332609e+00 -2.549516e-03 0
1.331799e+00 -1.984345e-03 0
1.330903e+00 -1.404214e-03 0
1.329929e+00 -8.245615e-04 0
1.328888e+00 -2.765023e-04 0
1.327788e+00 2.125027e-04 0
1.326630e+00 6.459704e-04 0
1.325407e+00 1.036351e-03 0
1.324094e+00 1.389520e-03 0
1.322665e+00 1.709030e-03 0
1.321115e+00 1.998519e-03 0
1.319451e+00 2.264056e-03 0
1.317677e+00 2.509930e-03 0
1.315801e+00 2.738958e-03 0
1.313827e+00 2.953086e-03 0
1.311760e+00 3.153784e-03 0
1.309605e+00 3.342263e-03 0
1.307366e+00 3.519562e-03 0
1.305047e+00 3.686575e-03 0
1.302653e+00 3.844047e-03 0
1.300186e+00 3.992577e-03 0
1.297650e+00 4.132640e-03 0
1.295049e+00 4.264625e-03 0
1.292385e+00 4.388875e-03 0
1.289662e+00 4.505714e-03 0
1.286881e+00 4.615468e-03 0
1.284047e+00 4.718462e-03 0
1.281160e+00 4.815024e-03 0
1.278224e+00 4.905475e-03 0
1.275241e+00 4.990119e-03 0
1.272213e+00 5.069248e-03 0
1.269141e+00 5.143132e-03 0
1.266029e+00 5.212023e-03 0
1.262877e+00 5.276150e-03 0
1.259687e+00 5.335722e-03 0
1.256462e+00 5.390922e-03 0
1.253203e+00 5.441910e-03 0
1.249911e+00 5.488822e-03 0
1.246588e+00 5.531778e-03 0
1.243235e+00 5.570883e-03 0
1.239854e+00 5.606237e-03 0
1.236446e+00 5.637946e-03 0
1.233012e+00 5.666128e-03 0
1.229555e+00 5.690917e-03 0
1.226074e+00 5.712462e-03 0
1.222571e+00 5.730930e-03 0
1.219048e+00 5.746492e-03 0
1.215505e+00 5.759317e-03 0
1.211943e+00 5.769565e-03 0
1.208364e+00 5.777374e-03 0
1.204768e+00 5.782859e-03 0
1.201156e+00 5.786108e-03 0
1.197529e+00 5.787178e-03 0
1.193889e+00 5.786105e-03 0
1.190236e+00 5.782896e-03 0
1.186570e+00 5.777543e-03 0
1.182894e+00 5.770019e-03 0
1.179208e+00 5.760282e-03 0
1.175512e+00 5.748280e-03 0
1.171808e+00 5.733955e-03 0
1.168097e+00 5.717242e-03 0
1.164379e+00 5.698080e-03 0
1.160657e+00 5.676411e-03 0
1.156930e+00 5.652187e-03 0
1.153200e+00 5.625374e-03 0
1.149469e+00 5.595953e-03 0
1.145736e+00 5.563917e-03 0
1.142004e+00 5.529274e-03 0
1.138273e+00 5.492036e-03 0
1.134545e+00 5.452217e-03 0
1.130821e+00 5.409822e-03 0
1.127102e+00 5.364846e-03 0
1.123390e+00 5.317265e-03 0
1.119685e+00 5.267032e-03 0
1.115988e+00 5.214085e-03 0
1.112303e+00 5.158340e-03 0
1.108629e+00 5.099707e-03 0
1.104967e+00 5.038089e-03 0
1.101321e+00 4.973396e-03 0
1.097690e+00 4.905552e-03 0
1.094076e+00 4.834504e-03 0
1.090481e+00 4.760229e-03 0
1.086907e+00 4.682744e-03 0
1.083353e+00 4.602105e-03 0
1.079822e+00 4.518415e-03 0
1.076316e+00 4.431824e-03 0
1.072834e+00 4.342531e-03 0
1.069379e+00 4.250779e-03 0
1.065952e+00 4.156860e-03 0
1.062553e+00 4.061101e-03 0
1.059184e+00 3.963865e-03 0
1.055845e+00 3.865542e-03 0
1.052537e+00 3.766537e-03 0
1.049261e+00 3.667264e-03 0
1.046018e+00 3.568136e-03 0
1.042807e+00 3.469571e-03 0
1.039630e+00 3.372059e-03 0
1.036487e+00 3.276290e-03 0
1.033378e+00 3.183266e-03 0
1.030304e+00 3.094010e-03 0
1.027267e+00 3.008821e-03 0
1.024269e+00 2.928148e-03 0
1.021308e+00 2.860567e-03 0
1.018377e+00 2.829473e-03 0
1.015437e+00 3.300242e-03 0
1.015437e+00 3.773584e-03 0
1.853866e+00 -3.541147e-04 0
1.853866e+00 -3.460737e-04 0
1.853972e+00 -3.092462e-04 0
1.854065e+00 -2.299453e-04 0
1.854141e+00 -1.060632e-04 0
1.854191e+00 6.521916e-05 0
1.854203e+00 2.883990e-04 0
1.854165e+00 5.699136e-04 0
1.854065e+00 9.177563e-04 0
1.853887e+00 1.341342e-03 0
1.853612e+00 1.851496e-03 0
1.853222e+00 2.460533e-03 0
1.852694e+00 3.182399e-03 0
1.852001e+00 4.032893e-03 0
1.851113e+00 5.029993e-03 0
1.849998e+00 6.194311e-03 0
1.848617e+00 7.549725e-03 0
1.846927e+00 9.124208e-03 0
1.844879e+00 1.095093e-02 0
1.842419e+00 1.306964e-02 0
1.839481e+00 1.552840e-02 0
1.835991e+00 1.838564e-02 0
1.831862e+00 2.171250e-02 0
1.826988e+00 2.559510e-02 0
1.821239e+00 3.013608e-02 0
1.814450e+00 3.545334e-02 0
1.806402e+00 4.167167e-02 0
1.796787e+00 4.889682e-02 0
1.785161e+00 5.714877e-02 0
1.770859e+00 6.620560e-02 0
1.752937e+00 7.527324e-02 0
1.730311e+00 8.241561e-02 0
1.702800e+00 8.409070e-02 0
1.674529e+00 7.698952e-02 0
1.654401e+00 6.328895e-02 0
1.641927e+00 4.845344e-02 0
1.634510e+00 3.542393e-02 0
1.630085e+00 2.500309e-02 0
1.627396e+00 1.702597e-02 0
1.625730e+00 1.103771e-02 0
1.624675e+00 6.574510e-03 0
1.623956e+00 3.263627e-03 0
1.623410e+00 8.297664e-04 0
1.622857e+00 -9.433917e-04 0
1.622258e+00 -2.199455e-03 0
1.621603e+00 -3.025497e-03 0
1.620899e+00 -3.499501e-03 0
1.620152e+00 -3.689357e-03 0
1.619368e+00 -3.653192e-03 0
1.618552e+00 -3.440021e-03 0
1.617706e+00 -3.090460e-03 0
1.616831e+00 -2.637486e-03 0
1.615923e+00 -2.107484e-03 0
1.614978e+00 -1.523309e-03 0
1.613994e+00 -9.062150e-04 0
1.612978e+00 -2.847442e-04 0
1.611931e+00 3.164179e-04 0
1.610850e+00 8.956506e-04 0
1.609716e+00 1.455558e-03 0
1.608507e+00 1.987969e-03 0
1.607216e+00 2.485618e-03 0
1.605839e+00 2.948077e-03 0
1.604374e+00 3.376902e-03 0
1.602820e+00 3.774779e-03 0
1.601179e+00 4.145345e-03 0
1.599453e+00 4.491888e-03 0
1.597646e+00 4.817045e-03 0
1.595761e+00 5.122901e-03 0
1.593801e+00 5.411156e-03 0
1.591769e+00 5.683245e-03 0
1.589668e+00 5.940408e-03 0
1.587502e+00 6.183716e-03 0
1.585273e+00 6.414085e-03 0
1.582983e+00 6.632289e-03 0
1.580636e+00 6.838986e-03 0
1.578233e+00 7.034745e-03 0
1.575777e+00 7.220084e-03 0
1.573270e+00 7.395486e-03 0
1.570714e+00 7.561423e-03 0
1.568111e+00 7.718351e-03 0
1.565462e+00 7.866712e-03 0
1.562770e+00 8.006933e-03 0
1.560035e+00 8.139414e-03 0
1.557259e+00 8.264536e-03 0
1.554444e+00 8.382651e-03 0
1.551592e+00 8.494087e-03 0
1.548702e+00 8.599142e-03 0
1.545778e+00 8.698090e-03 0
1.542819e+00 8.791176e-03 0
1.539827e+00 8.878619e-03 0
1.536804e+00 8.960615e-03 0
1.533750e+00 9.037340e-03 0
1.530666e+00 9.108957e-03 0
1.527554e+00 9.175623e-03 0
1.524413e+00 9.237500e-03 0
1.521246e+00 9.294753e-03 0
1.518052e+00 9.347562e-03 0
1.514833e+00 9.396118e-03 0
1.511589e+00 9.440618e-03 0
1.508322e+00 9.481264e-03 0
1.505031e+00 9.518249e-03 0
1.501718e+00 9.551755e-03 0
1.498383e+00 9.581942e-03 0
1.495027e+00 9.608944e-03 0
1.491651e+00 9.632866e-03 0
1.488255e+00 9.653784e-03 0
1.484840e+00 9.671741e-03 0
1.481406e+00 9.686757e-03 0
1.477955e+00 9.698824e-03 0
1.474486e+00 9.707913e-03 0
1.471001e+00 9.713977e-03 0
1.467500e+00 9.716954e-03 0
1.463983e+00 9.716771e-03 0
1.460452e+00 9.713350e-03 0
1.456906e+00 9.706612e-03 0
1.453347e+00 9.696484e-03 0
1.449775e+00 9.682898e-03 0
1.446190e+00 9.665801e-03 0
1.442594e+00 9.645152e-03 0
1.438987e+00 9.620922e-03 0
1.435370e+00 9.593092e-03 0
1.431743e+00 9.561649e-03 0
1.428108e+00 9.526576e-03 0
1.424464e+00 9.487852e-03 0
1.420813e+00 9.445441e-03 0
1.417155e+00 9.399292e-03 0
1.413492e+00 9.349336e-03 0
1.409824e+00 9.295487e-03 0
1.406152e+00 9.237646e-03 0
1.402477e+00 9.175706e-03 0
1.398800e+00 9.109563e-03 0
1.395121e+00 9.039119e-03 0
1.391442e+00 8.964298e-03 0
1.387764e+00 8.885049e-03 0
1.384086e+00 8.801358e-03 0
1.380412e+00 8.713251e-03 0
1.376740e+00 8.620804e-03 0
1.373072e+00 8.524139e-03 0
1.369409e+00 8.423433e-03 0
1.365752e+00 8.318915e-03 0
1.362102e+00 8.210862e-03 0
1.358459e+00 8.099600e-03 0
1.354825e+00 7.985494e-03 0
1.351199e+00 7.868942e-03 0
1.347585e+00 7.750366e-03 0
1.343981e+00 7.630198e-03 0
1.340389e+00 7.508873e-03 0
1.336810e+00 7.386822e-03 0
1.333245e+00 7.264474e-03 0
1.329694e+00 7.142281e-03 0
1.326160e+00 7.020744e-03 0
1.322643e+00 6.900370e-03 0
1.319145e+00 6.781545e-03 0
1.315670e+00 6.664625e-03 0
1.312219e+00 6.551203e-03 0
1.308796e+00 6.447493e-03 0
1.305412e+00 6.356466e-03 0
1.302102e+00 6.455905e-03 0
1.302102e+00 6.598154e-03 0
1.960858e+00 -4.780414e-04 0
1.960858e+00 -4.667334e-04 0
1.960975e+00 -4.216257e-04 0
1.961085e+00 -3.299374e-04 0
1.961184e+00 -1.877898e-04 0
1.961267e+00 9.130898e-06 0
1.961328e+00 2.669165e-04 0
1.961360e+00 5.938472e-04 0
1.961352e+00 9.993182e-04 0
1.961296e+00 1.494541e-03 0
1.961178e+00 2.092448e-03 0
1.960984e+00 2.807720e-03 0
1.960699e+00 3.656909e-03 0
1.960305e+00 4.658645e-03 0
1.959779e+00 5.833972e-03 0
1.959099e+00 7.206841e-03 0
1.958241e+00 8.804796e-03 0
1.957174e+00 1.065993e-02 0
1.955869e+00 1.281013e-02 0
1.954291e+00 1.530079e-02 0
1.952402e+00 1.818693e-02 0
1.950159e+00 2.153603e-02 0
1.947515e+00 2.543168e-02 0
1.944410e+00 2.997830e-02 0
1.940772e+00 3.530732e-02 0
1.936501e+00 4.158499e-02 0
1.931447e+00 4.902144e-02 0
1.925360e+00 5.787699e-02 0
1.917786e+00 6.844822e-02 0
1.907848e+00 8.096723e-02 0
1.893795e+00 9.519159e-02 0
1.872295e+00 1.090686e-01 0
1.838370e+00 1.153983e-01 0
1.797253e+00 1.034210e-01 0
1.778397e+00 7.890461e-02 0
1.772076e+00 5.629122e-02 0
1.770900e+00 3.903797e-02 0
1.771481e+00 2.658002e-02 0
1.772488e+00 1.767881e-02 0
1.773450e+00 1.129767e-02 0
1.774220e+00 6.703195e-03 0
1.774752e+00 3.399680e-03 0
1.775033e+00 1.047209e-03 0
1.775090e+00 -6.040246e-04 0
1.774942e+00 -1.728087e-03 0
1.774618e+00 -2.437038e-03 0
1.774154e+00 -2.814916e-03 0
1.773578e+00 -2.928540e-03 0
1.772916e+00 -2.832556e-03 0
1.772185e+00 -2.572062e-03 0
1.771402e+00 -2.184054e-03 0
1.770576e+00 -1.697907e-03 0
1.769716e+00 -1.134528e-03 0
1.768820e+00 -5.174894e-04 0
1.767893e+00 1.220918e-04 0
1.766937e+00 7.684261e-04 0
1.765941e+00 1.416832e-03 0
1.764896e+00 2.057156e-03 0
1.763801e+00 2.680088e-03 0
1.762653e+00 3.278390e-03 0
1.761450e+00 3.846904e-03 0
1.760187e+00 4.383678e-03 0
1.758863e+00 4.888797e-03 0
1.757476e+00 5.363633e-03 0
1.756025e+00 5.810328e-03 0
1.754512e+00 6.231179e-03 0
1.752939e+00 6.628311e-03 0
1.751306e+00 7.003603e-03 0
1.749616e+00 7.358699e-03 0
1.747871e+00 7.695049e-03 0
1.746074e+00 8.013944e-03 0