<?xml version="1.0"?>
<VTKFile type="StructuredGrid">
<StructuredGrid WholeExtent="0 158 0 30 0 0 ">
<Piece Extent="0 158 0 30 0 0 ">
<Points>
<DataArray type="Float64" format="ascii" NumberOfComponents="3">
0.000000e+00 0.000000e+00 0.000000e+00
3.164557e-02 0.000000e+00 0.000000e+00
6.329114e-02 0.000000e+00 0.000000e+00
9.493671e-02 0.000000e+00 0.000000e+00
1.265823e-01 0.000000e+00 0.000000e+00
1.582278e-01 0.000000e+00 0.000000e+00
1.898734e-01 0.000000e+00 0.000000e+00
2.215190e-01 0.000000e+00 0.000000e+00
2.531646e-01 0.000000e+00 0.000000e+00
2.848101e-01 0.000000e+00 0.000000e+00
3.164557e-01 0.000000e+00 0.000000e+00
3.481013e-01 0.000000e+00 0.000000e+00
3.797468e-01 0.000000e+00 0.000000e+00
4.113924e-01 0.000000e+00 0.000000e+00
4.430380e-01 0.000000e+00 0.000000e+00
4.746835e-01 0.000000e+00 0.000000e+00
5.063291e-01 0.000000e+00 0.000000e+00
5.379747e-01 0.000000e+00 0.000000e+00
5.696203e-01 0.000000e+00 0.000000e+00
6.012658e-01 0.000000e+00 0.000000e+00
6.329114e-01 0.000000e+00 0.000000e+00
6.645570e-01 0.000000e+00 0.000000e+00
6.962025e-01 0.000000e+00 0.000000e+00
7.278481e-01 0.000000e+00 0.000000e+00
7.594937e-01 0.000000e+00 0.000000e+00
7.911392e-01 0.000000e+00 0.000000e+00
8.227848e-01 0.000000e+00 0.000000e+00
8.544304e-01 0.000000e+00 0.000000e+00
8.860759e-01 0.000000e+00 0.000000e+00
9.177215e-01 0.000000e+00 0.000000e+00
9.493671e-01 0.000000e+00 0.000000e+00
9.810127e-01 0.000000e+00 0.000000e+00
1.012658e+00 0.000000e+00 0.000000e+00
1.044304e+00 0.000000e+00 0.000000e+00
1.075949e+00 0.000000e+00 0.000000e+00
1.107595e+00 0.000000e+00 0.000000e+00
1.139241e+00 0.000000e+00 0.000000e+00
1.170886e+00 0.000000e+00 0.000000e+00
1.202532e+00 0.000000e+00 0.000000e+00
1.234177e+00 0.000000e+00 0.000000e+00
1.265823e+00 0.000000e+00 0.000000e+00
1.297468e+00 0.000000e+00 0.000000e+00
1.329114e+00 0.000000e+00 0.000000e+00
1.360759e+00 0.000000e+00 0.000000e+00
1.392405e+00 0.000000e+00 0.000000e+00
1.424051e+00 0.000000e+00 0.000000e+00
1.455696e+00 0.000000e+00 0.000000e+00
1.487342e+00 0.000000e+00 0.000000e+00
1.518987e+00 0.000000e+00 0.000000e+00
1.550633e+00 0.000000e+00 0.000000e+00
1.582278e+00 0.000000e+00 0.000000e+00
1.613924e+00 0.000000e+00 0.000000e+00
1.645570e+00 0.000000e+00 0.000000e+00
1.677215e+00 0.000000e+00 0.000000e+00
1.708861e+00 0.000000e+00 0.000000e+00
1.740506e+00 0.000000e+00 0.000000e+00
1.772152e+00 0.000000e+00 0.000000e+00
1.803797e+00 0.000000e+00 0.000000e+00
1.835443e+00 0.000000e+00 0.000000e+00
1.867089e+00 0.000000e+00 0.000000e+00
1.898734e+00 0.000000e+00 0.000000e+00
1.930380e+00 0.000000e+00 0.000000e+00
1.962025e+00 0.000000e+00 0.000000e+00
1.993671e+00 0.000000e+00 0.000000e+00
2.025316e+00 0.000000e+00 0.000000e+00
2.056962e+00 0.000000e+00 0.000000e+00
2.088608e+00 0.000000e+00 0.000000e+00
2.120253e+00 0.000000e+00 0.000000e+00
2.151899e+00 0.000000e+00 0.000000e+00
2.183544e+00 0.000000e+00 0.000000e+00
2.215190e+00 0.000000e+00 0.000000e+00
2.246835e+00 0.000000e+00 0.000000e+00
2.278481e+00 0.000000e+00 0.000000e+00
2.310127e+00 0.000000e+00 0.000000e+00
2.341772e+00 0.000000e+00 0.000000e+00
2.373418e+00 0.000000e+00 0.000000e+00
2.405063e+00 0.000000e+00 0.000000e+00
2.436709e+00 0.000000e+00 0.000000e+00
2.468354e+00 0.000000e+00 0.000000e+00
2.500000e+00 0.000000e+00 0.000000e+00
2.531646e+00 0.000000e+00 0.000000e+00
2.563291e+00 0.000000e+00 0.000000e+00
2.594937e+00 0.000000e+00 0.000000e+00
2.626582e+00 0.000000e+00 0.000000e+00
2.658228e+00 0.000000e+00 0.000000e+00
2.689873e+00 0.000000e+00 0.000000e+00
2.721519e+00 0.000000e+00 0.000000e+00
2.753165e+00 0.000000e+00 0.000000e+00
2.784810e+00 0.000000e+00 0.000000e+00
2.816456e+00 0.000000e+00 0.000000e+00
2.848101e+00 0.000000e+00 0.000000e+00
2.879747e+00 0.000000e+00 0.000000e+00
2.911392e+00 0.000000e+00 0.000000e+00
2.943038e+00 0.000000e+00 0.000000e+00
2.974684e+00 0.000000e+00 0.000000e+00
3.006329e+00 0.000000e+00 0.000000e+00
3.037975e+00 0.000000e+00 0.000000e+00
3.069620e+00 0.000000e+00 0.000000e+00
3.101266e+00 0.000000e+00 0.000000e+00
3.132911e+00 0.000000e+00 0.000000e+00
3.164557e+00 0.000000e+00 0.000000e+00
3.196203e+00 0.000000e+00 0.000000e+00
3.227848e+00 0.000000e+00 0.000000e+00
3.259494e+00 0.000000e+00 0.000000e+00
3.291139e+00 0.000000e+00 0.000000e+00
3.322785e+00 0.000000e+00 0.000000e+00
3.354430e+00 0.000000e+00 0.000000e+00
3.386076e+00 0.000000e+00 0.000000e+00
3.417722e+00 0.000000e+00 0.000000e+00
3.449367e+00 0.000000e+00 0.000000e+00
3.481013e+00 0.000000e+00 0.000000e+00
3.512658e+00 0.000000e+00 0.000000e+00
3.544304e+00 0.000000e+00 0.000000e+00
3.575949e+00 0.000000e+00 0.000000e+00
3.607595e+00 0.000000e+00 0.000000e+00
3.639241e+00 0.000000e+00 0.000000e+00
3.670886e+00 0.000000e+00 0.000000e+00
3.702532e+00 0.000000e+00 0.000000e+00
3.734177e+00 0.000000e+00 0.000000e+00
3.765823e+00 0.000000e+00 0.000000e+00
3.797468e+00 0.000000e+00 0.000000e+00
3.829114e+00 0.000000e+00 0.000000e+00
3.860759e+00 0.000000e+00 0.000000e+00
3.892405e+00 0.000000e+00 0.000000e+00
3.924051e+00 0.000000e+00 0.000000e+00
3.955696e+00 0.000000e+00 0.000000e+00
3.987342e+00 0.000000e+00 0.000000e+00
4.018987e+00 0.000000e+00 0.000000e+00
4.050633e+00 0.000000e+00 0.000000e+00
4.082278e+00 0.000000e+00 0.000000e+00
4.113924e+00 0.000000e+00 0.000000e+00
4.145570e+00 0.000000e+00 0.000000e+00
4.177215e+00 0.000000e+00 0.000000e+00
4.208861e+00 0.000000e+00 0.000000e+00
4.240506e+00 0.000000e+00 0.000000e+00
4.272152e+00 0.000000e+00 0.000000e+00
4.303797e+00 0.000000e+00 0.000000e+00
4.335443e+00 0.000000e+00 0.000000e+00
4.367089e+00 0.000000e+00 0.000000e+00
4.398734e+00 0.000000e+00 0.000000e+00
4.430380e+00 0.000000e+00 0.000000e+00
4.462025e+00 0.000000e+00 0.000000e+00
4.493671e+00 0.000000e+00 0.000000e+00
4.525316e+00 0.000000e+00 0.000000e+00
4.556962e+00 0.000000e+00 0.000000e+00
4.588608e+00 0.000000e+00 0.000000e+00
4.620253e+00 0.000000e+00 0.000000e+00
4.651899e+00 0.000000e+00 0.000000e+00
4.683544e+00 0.000000e+00 0.000000e+00
4.715190e+00 0.000000e+00 0.000000e+00
4.746835e+00 0.000000e+00 0.000000e+00
4.778481e+00 0.000000e+00 0.000000e+00
4.810127e+00 0.000000e+00 0.000000e+00
4.841772e+00 0.000000e+00 0.000000e+00
4.873418e+00 0.000000e+00 0.000000e+00
4.905063e+00 0.000000e+00 0.000000e+00
4.936709e+00 0.000000e+00 0.000000e+00
4.968354e+00 0.000000e+00 0.000000e+00
5.000000e+00 0.000000e+00 0.000000e+00
0.000000e+00 3.333333e-02 0.000000e+00
3.164557e-02 3.333333e-02 0.000000e+00
6.329114e-02 3.333333e-02 0.000000e+00
9.493671e-02 3.333333e-02 0.000000e+00
1.265823e-01 3.333333e-02 0.000000e+00
1.582278e-01 3.333333e-02 0.000000e+00
1.898734e-01 3.333333e-02 0.000000e+00
2.215190e-01 3.333333e-02 0.000000e+00
2.531646e-01 3.333333e-02 0.000000e+00
2.848101e-01 3.333333e-02 0.000000e+00
3.164557e-01 3.333333e-02 0.000000e+00
3.481013e-01 3.333333e-02 0.000000e+00
3.797468e-01 3.333333e-02 0.000000e+00
4.113924e-01 3.333333e-02 0.000000e+00
4.430380e-01 3.333333e-02 0.000000e+00
4.746835e-01 3.333333e-02 0.000000e+00
5.063291e-01 3.333333e-02 0.000000e+00
5.379747e-01 3.333333e-02 0.000000e+00
5.696203e-01 3.333333e-02 0.000000e+00
6.012658e-01 3.333333e-02 0.000000e+00
6.329114e-01 3.333333e-02 0.000000e+00
6.645570e-01 3.333333e-02 0.000000e+00
6.962025e-01 3.333333e-02 0.000000e+00
7.278481e-01 3.333333e-02 0.000000e+00
7.594937e-01 3.333333e-02 0.000000e+00
7.911392e-01 3.333333e-02 0.000000e+00
8.227848e-01 3.333333e-02 0.000000e+00
8.544304e-01 3.333333e-02 0.000000e+00
8.860759e-01 3.333333e-02 0.000000e+00
9.177215e-01 3.333333e-02 0.000000e+00
9.493671e-01 3.333333e-02 0.000000e+00
9.810127e-01 3.333333e-02 0.000000e+00
1.012658e+00 3.333333e-02 0.000000e+00
1.044304e+00 3.333333e-02 0.000000e+00
1.075949e+00 3.333333e-02 0.000000e+00
1.107595e+00 3.333333e-02 0.000000e+00
1.139241e+00 3.333333e-02 0.000000e+00
1.170886e+00 3.333333e-02 0.000000e+00
1.202532e+00 3.333333e-02 0.000000e+00
1.234177e+00 3.333333e-02 0.000000e+00
1.265823e+00 3.333333e-02 0.000000e+00
1.297468e+00 3.333333e-02 0.000000e+00
1.329114e+00 3.333333e-02 0.000000e+00
1.360759e+00 3.333333e-02 0.000000e+00
1.392405e+00 3.333333e-02 0.000000e+00
1.424051e+00 3.333333e-02 0.000000e+00
1.455696e+00 3.333333e-02 0.000000e+00
1.487342e+00 3.333333e-02 0.000000e+00
1.518987e+00 3.333333e-02 0.000000e+00
1.550633e+00 3.333333e-02 0.000000e+00
1.582278e+00 3.333333e-02 0.000000e+00
1.613924e+00 3.333333e-02 0.000000e+00
1.645570e+00 3.333333e-02 0.000000e+00
1.677215e+00 3.333333e-02 0.000000e+00
1.708861e+00 3.333333e-02 0.000000e+00
1.740506e+00 3.333333e-02 0.000000e+00
1.772152e+00 3.333333e-02 0.000000e+00
1.803797e+00 3.333333e-02 0.000000e+00
1.835443e+00 3.333333e-02 0.000000e+00
1.867089e+00 3.333333e-02 0.000000e+00
1.898734e+00 3.333333e-02 0.000000e+00
1.930380e+00 3.333333e-02 0.000000e+00
1.962025e+00 3.333333e-02 0.000000e+00
1.993671e+00 3.333333e-02 0.000000e+00
2.025316e+00 3.333333e-02 0.000000e+00
2.056962e+00 3.333333e-02 0.000000e+00
2.088608e+00 3.333333e-02 0.000000e+00
2.120253e+00 3.333333e-02 0.000000e+00
2.151899e+00 3.333333e-02 0.000000e+00
2.183544e+00 3.333333e-02 0.000000e+00
2.215190e+00 3.333333e-02 0.000000e+00
2.246835e+00 3.333333e-02 0.000000e+00
2.278481e+00 3.333333e-02 0.000000e+00
2.310127e+00 3.333333e-02 0.000000e+00
2.341772e+00 3.333333e-02 0.000000e+00
2.373418e+00 3.333333e-02 0.000000e+00
2.405063e+00 3.333333e-02 0.000000e+00
2.436709e+00 3.333333e-02 0.000000e+00
2.468354e+00 3.333333e-02 0.000000e+00
2.500000e+00 3.333333e-02 0.000000e+00
2.531646e+00 3.333333e-02 0.000000e+00
2.563291e+00 3.333333e-02 0.000000e+00
2.594937e+00 3.333333e-02 0.000000e+00
2.626582e+00 3.333333e-02 0.000000e+00
2.658228e+00 3.333333e-02 0.000000e+00
2.689873e+00 3.333333e-02 0.000000e+00
2.721519e+00 3.333333e-02 0.000000e+00
2.753165e+00 3.333333e-02 0.000000e+00
2.784810e+00 3.333333e-02 0.000000e+00
2.816456e+00 3.333333e-02 0.000000e+00
2.848101e+00 3.333333e-02 0.000000e+00
2.879747e+00 3.333333e-02 0.000000e+00
[...]
<PointData>
<DataArray Name="Velocity" type="Float64" format="ascii" NumberOfComponents="3">
0.000000e+00 0.000000e+00 0
0.000000e+00 0.000000e+00 0
0.000000e+00 0.000000e+00 0
0.000000e+00 0.000000e+00 0
0.000000e+00 0.000000e+00 0
0.000000e+00 0.000000e+00 0
0.000000e+00 0.000000e+00 0
0.000000e+00 0.000000e+00 0
0.000000e+00 0.000000e+00 0
0.000000e+00 0.000000e+00 0
0.000000e+00 0.000000e+00 0
0.000000e+00 0.000000e+00 0
0.000000e+00 0.000000e+00 0
0.000000e+00 0.000000e+00 0
0.000000e+00 0.000000e+00 0
0.000000e+00 0.000000e+00 0
0.000000e+00 0.000000e+00 0
0.000000e+00 0.000000e+00 0
0.000000e+00 0.000000e+00 0
4.864615e-17 0.000000e+00 0
0.000000e+00 0.000000e+00 0
0.000000e+00 0.000000e+00 0
0.000000e+00 0.000000e+00 0
1.098582e-17 0.000000e+00 0
0.000000e+00 0.000000e+00 0
0.000000e+00 0.000000e+00 0
0.000000e+00 0.000000e+00 0
-2.970425e-18 0.000000e+00 0
0.000000e+00 0.000000e+00 0
0.000000e+00 0.000000e+00 0
0.000000e+00 0.000000e+00 0
-4.991596e-18 0.000000e+00 0
0.000000e+00 0.000000e+00 0
0.000000e+00 0.000000e+00 0
0.000000e+00 0.000000e+00 0
0.000000e+00 0.000000e+00 0
0.000000e+00 0.000000e+00 0
0.000000e+00 0.000000e+00 0
1.439783e-17 0.000000e+00 0
0.000000e+00 0.000000e+00 0
0.000000e+00 0.000000e+00 0
0.000000e+00 0.000000e+00 0
0.000000e+00 0.000000e+00 0
0.000000e+00 0.000000e+00 0
0.000000e+00 0.000000e+00 0
0.000000e+00 0.000000e+00 0
2.311806e-17 0.000000e+00 0
0.000000e+00 0.000000e+00 0
0.000000e+00 0.000000e+00 0
0.000000e+00 0.000000e+00 0
0.000000e+00 0.000000e+00 0
0.000000e+00 0.000000e+00 0
0.000000e+00 0.000000e+00 0
0.000000e+00 0.000000e+00 0
1.539125e-17 0.000000e+00 0
0.000000e+00 0.000000e+00 0
0.000000e+00 0.000000e+00 0
0.000000e+00 0.000000e+00 0
0.000000e+00 0.000000e+00 0
0.000000e+00 0.000000e+00 0
0.000000e+00 0.000000e+00 0
0.000000e+00 0.000000e+00 0
2.012976e-17 0.000000e+00 0
0.000000e+00 0.000000e+00 0
0.000000e+00 0.000000e+00 0
0.000000e+00 0.000000e+00 0
0.000000e+00 0.000000e+00 0
0.000000e+00 0.000000e+00 0
0.000000e+00 0.000000e+00 0
0.000000e+00 0.000000e+00 0
0.000000e+00 0.000000e+00 0
0.000000e+00 0.000000e+00 0
0.000000e+00 0.000000e+00 0
0.000000e+00 0.000000e+00 0
0.000000e+00 0.000000e+00 0
0.000000e+00 0.000000e+00 0
0.000000e+00 0.000000e+00 0
0.000000e+00 0.000000e+00 0
0.000000e+00 0.000000e+00 0
0.000000e+00 0.000000e+00 0
0.000000e+00 0.000000e+00 0
0.000000e+00 0.000000e+00 0
0.000000e+00 0.000000e+00 0
0.000000e+00 0.000000e+00 0
0.000000e+00 0.000000e+00 0
0.000000e+00 0.000000e+00 0
0.000000e+00 0.000000e+00 0
0.000000e+00 0.000000e+00 0
0.000000e+00 0.000000e+00 0
0.000000e+00 0.000000e+00 0
0.000000e+00 0.000000e+00 0
0.000000e+00 0.000000e+00 0
0.000000e+00 0.000000e+00 0
0.000000e+00 0.000000e+00 0
0.000000e+00 0.000000e+00 0
0.000000e+00 0.000000e+00 0
0.000000e+00 0.000000e+00 0
0.000000e+00 0.000000e+00 0
0.000000e+00 0.000000e+00 0
0.000000e+00 0.000000e+00 0
0.000000e+00 0.000000e+00 0
0.000000e+00 0.000000e+00 0
0.000000e+00 0.000000e+00 0
0.000000e+00 0.000000e+00 0
0.000000e+00 0.000000e+00 0
0.000000e+00 0.000000e+00 0
0.000000e+00 0.000000e+00 0
0.000000e+00 0.000000e+00 0
0.000000e+00 0.000000e+00 0
0.000000e+00 0.000000e+00 0
0.000000e+00 0.000000e+00 0
0.000000e+00 0.000000e+00 0
0.000000e+00 0.000000e+00 0
0.000000e+00 0.000000e+00 0
0.000000e+00 0.000000e+00 0
0.000000e+00 0.000000e+00 0
0.000000e+00 0.000000e+00 0
0.000000e+00 0.000000e+00 0
0.000000e+00 0.000000e+00 0
0.000000e+00 0.000000e+00 0
0.000000e+00 0.000000e+00 0
0.000000e+00 0.000000e+00 0
0.000000e+00 0.000000e+00 0
0.000000e+00 0.000000e+00 0
0.000000e+00 0.000000e+00 0
0.000000e+00 0.000000e+00 0
0.000000e+00 0.000000e+00 0
0.000000e+00 0.000000e+00 0
0.000000e+00 0.000000e+00 0
0.000000e+00 0.000000e+00 0
0.000000e+00 0.000000e+00 0
0.000000e+00 0.000000e+00 0
0.000000e+00 0.000000e+00 0
0.000000e+00 0.000000e+00 0
0.000000e+00 0.000000e+00 0
0.000000e+00 0.000000e+00 0
0.000000e+00 0.000000e+00 0
0.000000e+00 0.000000e+00 0
0.000000e+00 0.000000e+00 0
0.000000e+00 0.000000e+00 0
0.000000e+00 0.000000e+00 0
0.000000e+00 0.000000e+00 0
0.000000e+00 0.000000e+00 0
0.000000e+00 0.000000e+00 0
0.000000e+00 0.000000e+00 0
0.000000e+00 0.000000e+00 0
0.000000e+00 0.000000e+00 0
0.000000e+00 0.000000e+00 0
0.000000e+00 0.000000e+00 0
0.000000e+00 0.000000e+00 0
0.000000e+00 0.000000e+00 0
0.000000e+00 0.000000e+00 0
0.000000e+00 0.000000e+00 0
0.000000e+00 0.000000e+00 0
0.000000e+00 0.000000e+00 0
0.000000e+00 0.000000e+00 0
0.000000e+00 0.000000e+00 0
0.000000e+00 0.000000e+00 0
0.000000e+00 0.000000e+00 0
1.621308e+00 -5.856379e-05 0
1.621308e+00 -6.304921e-05 0
1.621361e+00 -5.874711e-05 0
1.621397e+00 -3.264166e-05 0
1.621407e+00 5.713361e-06 0
1.621378e+00 5.377217e-05 0
1.621297e+00 1.149879e-04 0
1.621152e+00 1.915669e-04 0
1.620926e+00 2.855805e-04 0
1.620601e+00 3.992952e-04 0
1.620157e+00 5.353646e-04 0
1.619573e+00 6.967788e-04 0
1.618822e+00 8.867960e-04 0
1.617876e+00 1.109078e-03 0
1.616702e+00 1.367755e-03 0
1.615263e+00 1.667477e-03 0
1.613518e+00 2.013685e-03 0
1.611420e+00 2.412793e-03 0
1.608914e+00 2.872322e-03 0
1.605940e+00 3.401154e-03 0
1.602427e+00 4.009879e-03 0
1.598294e+00 4.711199e-03 0
1.593445e+00 5.520243e-03 0
1.587769e+00 6.454713e-03 0
1.581138e+00 7.534473e-03 0
1.573401e+00 8.779755e-03 0
1.564387e+00 1.020650e-02 0
1.553912e+00 1.181622e-02 0
1.541793e+00 1.357621e-02 0
1.527894e+00 1.538529e-02 0
1.512210e+00 1.702626e-02 0
1.495023e+00 1.813056e-02 0
1.477091e+00 1.823334e-02 0
1.459740e+00 1.703477e-02 0
1.444434e+00 1.473854e-02 0
1.431925e+00 1.192810e-02 0
1.422264e+00 9.139159e-03 0
1.415116e+00 6.682158e-03 0
1.410018e+00 4.667003e-03 0
1.406521e+00 3.083534e-03 0
1.404243e+00 1.865662e-03 0
1.402886e+00 9.227977e-04 0
1.402229e+00 7.985733e-05 0
1.402105e+00 -6.858552e-04 0
1.402402e+00 -1.273298e-03 0
1.403007e+00 -1.692867e-03 0
1.403822e+00 -1.964457e-03 0
1.404762e+00 -2.111025e-03 0
1.405760e+00 -2.155084e-03 0
1.406759e+00 -2.117125e-03 0
1.407715e+00 -2.015060e-03 0
1.408594e+00 -1.864168e-03 0
1.409369e+00 -1.677271e-03 0
1.410021e+00 -1.464992e-03 0
1.410537e+00 -1.235991e-03 0
1.410908e+00 -9.970197e-04 0
1.411130e+00 -7.533222e-04 0
1.411206e+00 -5.063546e-04 0
1.411155e+00 -2.708862e-04 0
1.410989e+00 -7.781365e-05 0
1.410719e+00 6.216968e-05 0
1.410354e+00 1.683208e-04 0
1.409904e+00 2.597605e-04 0
1.409375e+00 3.424841e-04 0
1.408773e+00 4.188140e-04 0
1.408102e+00 4.898694e-04 0
1.407367e+00 5.562941e-04 0
1.406573e+00 6.185075e-04 0
1.405722e+00 6.768110e-04 0
1.404819e+00 7.314445e-04 0
1.403865e+00 7.826183e-04 0
1.402865e+00 8.305285e-04 0
1.401821e+00 8.753598e-04 0
1.400736e+00 9.172831e-04 0
1.399613e+00 9.564543e-04 0
1.398454e+00 9.930160e-04 0
1.397260e+00 1.027102e-03 0
1.396036e+00 1.058840e-03 0
1.394781e+00 1.088353e-03 0
1.393500e+00 1.115756e-03 0
1.392192e+00 1.141154e-03 0
1.390861e+00 1.164645e-03 0
1.389508e+00 1.186323e-03 0
1.388134e+00 1.206284e-03 0
1.386741e+00 1.224625e-03 0
1.385330e+00 1.241444e-03 0
1.383903e+00 1.256831e-03 0
1.382462e+00 1.270865e-03 0
1.381006e+00 1.283611e-03 0
1.379538e+00 1.295123e-03 0
1.378059e+00 1.305456e-03 0
1.376569e+00 1.314671e-03 0
1.375069e+00 1.322839e-03 0
1.373561e+00 1.330027e-03 0
1.372045e+00 1.336298e-03 0
1.370523e+00 1.341703e-03 0
1.368994e+00 1.346280e-03 0
1.367460e+00 1.350060e-03 0
1.365922e+00 1.353080e-03 0
1.364380e+00 1.355378e-03 0
1.362834e+00 1.356997e-03 0
1.361286e+00 1.357979e-03 0
1.359735e+00 1.358358e-03 0
1.358184e+00 1.358166e-03 0
1.356631e+00 1.357426e-03 0
1.355077e+00 1.356160e-03 0
1.353524e+00 1.354390e-03 0
1.351971e+00 1.352137e-03 0
1.350419e+00 1.349427e-03 0
1.348868e+00 1.346286e-03 0
1.347319e+00 1.342739e-03 0
1.345772e+00 1.338805e-03 0
1.344227e+00 1.334499e-03 0
1.342685e+00 1.329831e-03 0
1.341146e+00 1.324811e-03 0
1.339610e+00 1.319453e-03 0
1.338079e+00 1.313773e-03 0
1.336551e+00 1.307787e-03 0
1.335028e+00 1.301507e-03 0
1.333509e+00 1.294942e-03 0
1.331995e+00 1.288097e-03 0
1.330486e+00 1.280977e-03 0
1.328982e+00 1.273587e-03 0
1.327485e+00 1.265933e-03 0
1.325993e+00 1.258021e-03 0
1.324507e+00 1.249855e-03 0
1.323028e+00 1.241438e-03 0
1.321555e+00 1.232772e-03 0
1.320089e+00 1.223859e-03 0
1.318631e+00 1.214700e-03 0
1.317179e+00 1.205297e-03 0
1.315736e+00 1.195651e-03 0
1.314300e+00 1.185762e-03 0
1.312872e+00 1.175627e-03 0
1.311453e+00 1.165243e-03 0
1.310042e+00 1.154606e-03 0
1.308640e+00 1.143712e-03 0
1.307247e+00 1.132557e-03 0
1.305864e+00 1.121136e-03 0
1.304490e+00 1.109444e-03 0
1.303126e+00 1.097473e-03 0
1.301773e+00 1.085212e-03 0
1.300429e+00 1.072646e-03 0
1.299097e+00 1.059753e-03 0
1.297776e+00 1.046504e-03 0
1.296466e+00 1.032861e-03 0
1.295168e+00 1.018767e-03 0
1.293883e+00 1.004142e-03 0
1.292611e+00 9.888689e-04 0
1.291352e+00 9.727729e-04 0
1.290108e+00 9.555884e-04 0
1.288879e+00 9.369009e-04 0
1.287668e+00 9.160216e-04 0
1.286477e+00 8.917206e-04 0
1.285309e+00 8.613435e-04 0
1.284171e+00 8.199966e-04 0
1.283072e+00 7.193216e-04 0
1.282028e+00 8.364019e-04 0
1.282028e+00 1.029982e-03 0
2.489107e+00 -1.155541e-04 0
2.489107e+00 -1.131806e-04 0
2.489151e+00 -9.439731e-05 0
2.489183e+00 -4.901965e-05 0
2.489194e+00 2.083794e-05 0
2.489173e+00 1.156791e-04 0
2.489108e+00 2.382242e-04 0
2.488986e+00 3.918693e-04 0
2.488793e+00 5.805467e-04 0
2.488513e+00 8.088665e-04 0
2.488130e+00 1.082090e-03 0
2.487623e+00 1.406063e-03 0
2.486970e+00 1.787351e-03 0
2.486145e+00 2.233336e-03 0
2.485118e+00 2.752281e-03 0
2.483859e+00 3.353664e-03 0
2.482329e+00 4.048474e-03 0
2.480488e+00 4.849481e-03 0
2.478288e+00 5.771668e-03 0
2.475676e+00 6.832832e-03 0
2.472589e+00 8.054325e-03 0
2.468957e+00 9.461794e-03 0
2.464697e+00 1.108597e-02 0
2.459709e+00 1.296312e-02 0
2.453879e+00 1.513456e-02 0
2.447070e+00 1.764365e-02 0
2.439116e+00 2.052765e-02 0
2.429826e+00 2.379902e-02 0
2.418976e+00 2.740615e-02 0
2.406335e+00 3.116063e-02 0
2.391723e+00 3.462395e-02 0
2.375187e+00 3.699247e-02 0
2.357383e+00 3.716556e-02 0
2.340086e+00 3.439969e-02 0
2.325619e+00 2.929886e-02 0
2.314581e+00 2.335265e-02 0
2.306558e+00 1.770535e-02 0
2.300880e+00 1.289816e-02 0
2.296936e+00 9.052451e-03 0
2.294251e+00 6.082656e-03 0
2.292476e+00 3.829478e-03 0
2.291357e+00 2.121865e-03 0
2.290695e+00 8.228443e-04 0
2.290249e+00 -1.812767e-04 0
2.289935e+00 -9.499188e-04 0
2.289703e+00 -1.495816e-03 0
2.289522e+00 -1.849369e-03 0
2.289366e+00 -2.042131e-03 0
2.289217e+00 -2.103447e-03 0
2.289061e+00 -2.059333e-03 0
2.288885e+00 -1.932276e-03 0
2.288681e+00 -1.741408e-03 0
2.288441e+00 -1.502837e-03 0
2.288160e+00 -1.230077e-03 0
2.287833e+00 -9.344810e-04 0
2.287458e+00 -6.253676e-04 0
2.287041e+00 -3.142472e-04 0
2.286587e+00 -2.560884e-05 0
2.286103e+00 2.292509e-04 0
2.285583e+00 4.592347e-04 0
2.285007e+00 6.684371e-04 0
2.284362e+00 8.584753e-04 0
2.283648e+00 1.031867e-03 0
2.282866e+00 1.191885e-03 0
2.282022e+00 1.340772e-03 0
2.281119e+00 1.479981e-03 0
2.280159e+00 1.610491e-03 0
2.279146e+00 1.733008e-03 0
2.278083e+00 1.848079e-03 0
2.276974e+00 1.956158e-03 0
2.275820e+00 2.057649e-03 0
2.274624e+00 2.152921e-03 0
2.273388e+00 2.242312e-03 0
2.272116e+00 2.326137e-03 0
2.270808e+00 2.404683e-03 0
2.269468e+00 2.478221e-03 0
2.268097e+00 2.547007e-03 0
2.266696e+00 2.611285e-03 0
2.265269e+00 2.671290e-03 0
2.263816e+00 2.727238e-03 0
2.262339e+00 2.779334e-03 0
2.260839e+00 2.827771e-03 0
2.259319e+00 2.872738e-03 0
2.257778e+00 2.914420e-03 0
2.256220e+00 2.952998e-03 0
2.254644e+00 2.988644e-03 0
2.253052e+00 3.021519e-03 0
2.251446e+00 3.051765e-03 0
2.249825e+00 3.079511e-03 0
2.248192e+00 3.104878e-03 0
2.246546e+00 3.127986e-03 0
2.244890e+00 3.148959e-03 0
2.243223e+00 3.167921e-03 0
2.241547e+00 3.184987e-03 0
2.239863e+00 3.200264e-03 0
2.238170e+00 3.213840e-03 0
2.236470e+00 3.225795e-03 0
2.234764e+00 3.236204e-03 0
2.233051e+00 3.245143e-03 0
2.231333e+00 3.252688e-03 0
2.229611e+00 3.258917e-03 0
2.227884e+00 3.263900e-03 0
2.226153e+00 3.267701e-03 0
2.224419e+00 3.270374e-03 0
2.222682e+00 3.271969e-03 0
2.220943e+00 3.272532e-03 0
2.219201e+00 3.272108e-03 0
2.217458e+00 3.270744e-03 0
2.215714e+00 3.268488e-03 0
2.213969e+00 3.265384e-03 0
2.212223e+00 3.261473e-03 0
2.210477e+00 3.256787e-03 0
2.208731e+00 3.251354e-03 0
2.206986e+00 3.245198e-03 0
2.205241e+00 3.238347e-03 0
2.203498e+00 3.230828e-03 0
2.201756e+00 3.222669e-03 0
2.200015e+00 3.213893e-03 0
2.198276e+00 3.204520e-03 0
2.196539e+00 3.194563e-03 0
2.194805e+00 3.184034e-03 0
2.193073e+00 3.172947e-03 0
2.191344e+00 3.161311e-03 0
2.189618e+00 3.149138e-03 0
2.187896e+00 3.136436e-03 0
2.186176e+00 3.123211e-03 0
2.184461e+00 3.109468e-03 0
2.182750e+00 3.095209e-03 0
2.181043e+00 3.080436e-03 0
2.179340e+00 3.065153e-03 0
2.177642e+00 3.049361e-03 0
2.175949e+00 3.033060e-03 0
2.174261e+00 3.016246e-03 0
2.172579e+00 2.998914e-03 0
2.170902e+00 2.981059e-03 0
2.169231e+00 2.962672e-03 0
2.167566e+00 2.943747e-03 0
2.165907e+00 2.924274e-03 0
2.164255e+00 2.904244e-03 0
2.162610e+00 2.883644e-03 0
2.160972e+00 2.862456e-03 0
2.159342e+00 2.840655e-03 0
2.157719e+00 2.818211e-03 0
2.156104e+00 2.795080e-03 0
2.154497e+00 2.771207e-03 0
2.152899e+00 2.746511e-03 0
2.151310e+00 2.720882e-03 0
2.149731e+00 2.694158e-03 0
2.148161e+00 2.666110e-03 0
2.146602e+00 2.636393e-03 0
2.145054e+00 2.604491e-03 0
2.143518e+00 2.569608e-03 0
2.141996e+00 2.530461e-03 0
2.140488e+00 2.484910e-03 0
2.138997e+00 2.429236e-03 0
2.137525e+00 2.356645e-03 0
2.136073e+00 2.256829e-03 0
2.134599e+00 2.244816e-03 0
2.134599e+00 2.290988e-03 0
2.929524e+00 -1.744689e-04 0
2.929524e+00 -1.678512e-04 0
2.929576e+00 -1.388658e-04 0
2.929619e+00 -7.792756e-05 0
2.929647e+00 1.597032e-05 0
2.929653e+00 1.449962e-04 0
2.929629e+00 3.126805e-04 0
2.929565e+00 5.234002e-04 0
2.929451e+00 7.826008e-04 0
2.929277e+00 1.096658e-03 0
2.929030e+00 1.472771e-03 0
2.928695e+00 1.919063e-03 0
2.928254e+00 2.444649e-03 0
2.927691e+00 3.059663e-03 0
2.926982e+00 3.775559e-03 0
2.926105e+00 4.605413e-03 0
2.925034e+00 5.564212e-03 0
2.923738e+00 6.669303e-03 0
2.922183e+00 7.941061e-03 0
2.920333e+00 9.403773e-03 0
2.918145e+00 1.108661e-02 0
2.915568e+00 1.302490e-02 0
2.912545e+00 1.526157e-02 0
2.909009e+00 1.784861e-02 0
2.904877e+00 2.084783e-02 0
2.900043e+00 2.433013e-02 0
2.894372e+00 2.837030e-02 0
2.887674e+00 3.303077e-02 0
2.879673e+00 3.831963e-02 0
2.869960e+00 4.409150e-02 0
2.857943e+00 4.983511e-02 0
2.842944e+00 5.430297e-02 0
2.824862e+00 5.520714e-02 0
2.806467e+00 5.049232e-02 0
2.793287e+00 4.160440e-02 0
2.785034e+00 3.200562e-02 0
2.780078e+00 2.356964e-02 0
2.777107e+00 1.681701e-02 0
2.775308e+00 1.164982e-02 0
2.774217e+00 7.781532e-03 0
2.773568e+00 4.914933e-03 0
2.773195e+00 2.799435e-03 0
2.772981e+00 1.246824e-03 0
2.772849e+00 1.150639e-04 0
2.772724e+00 -6.990292e-04 0
2.772582e+00 -1.258721e-03 0
2.772410e+00 -1.609532e-03 0
2.772208e+00 -1.790125e-03 0
2.771973e+00 -1.833347e-03 0
2.771707e+00 -1.767048e-03 0
2.771412e+00 -1.614759e-03 0
2.771088e+00 -1.396274e-03 0
2.770737e+00 -1.128159e-03 0
2.770358e+00 -8.243920e-04 0
2.769952e+00 -4.971087e-04 0
2.769523e+00 -1.625085e-04 0
2.769075e+00 1.640834e-04 0
2.768604e+00 4.812135e-04 0
2.768094e+00 7.876077e-04 0
2.767538e+00 1.077084e-03 0
2.766934e+00 1.347880e-03 0
2.766280e+00 1.600108e-03 0
2.765576e+00 1.835014e-03 0
2.764823e+00 2.054397e-03 0
2.764022e+00 2.259890e-03 0
2.763177e+00 2.452793e-03 0
2.762288e+00 2.634117e-03 0
2.761358e+00 2.804673e-03 0
2.760390e+00 2.965133e-03 0
2.759386e+00 3.116086e-03 0
2.758347e+00 3.258064e-03 0
2.757275e+00 3.391553e-03 0
2.756172e+00 3.517003e-03 0
2.755041e+00 3.634830e-03 0
2.753882e+00 3.745423e-03 0
2.752697e+00 3.849153e-03 0
2.751487e+00 3.946369e-03 0
2.750255e+00 4.037407e-03 0
2.749001e+00 4.122582e-03 0
2.747727e+00 4.202191e-03 0
2.746434e+00 4.276513e-03 0
2.745122e+00 4.345819e-03 0
2.743794e+00 4.410371e-03 0
2.742449e+00 4.470422e-03 0
2.741090e+00 4.526218e-03 0
2.739717e+00 4.577988e-03 0
2.738330e+00 4.625941e-03 0
2.736932e+00 4.670272e-03 0
2.735521e+00 4.711159e-03 0
2.734100e+00 4.748779e-03 0
2.732669e+00 4.783302e-03 0
2.731229e+00 4.814899e-03 0
2.729780e+00 4.843732e-03 0
2.728322e+00 4.869954e-03 0
2.726857e+00 4.893700e-03 0
2.725386e+00 4.915092e-03 0
2.723907e+00 4.934243e-03 0
2.722423e+00 4.951263e-03 0
2.720933e+00 4.966260e-03 0
2.719438e+00 4.979340e-03 0
2.717938e+00 4.990604e-03 0
2.716434e+00 5.000145e-03 0
2.714926e+00 5.008047e-03 0
2.713415e+00 5.014386e-03 0
2.711900e+00 5.019231e-03 0
2.710383e+00 5.022648e-03 0
2.708863e+00 5.024702e-03 0
2.707341e+00 5.025459e-03 0
2.705817e+00 5.024982e-03 0
2.704291e+00 5.023330e-03 0
2.702764e+00 5.020551e-03 0
2.701236e+00 5.016690e-03 0
2.699707e+00 5.011784e-03 0
2.698177e+00 5.005870e-03 0
2.696647e+00 4.998989e-03 0
2.695116e+00 4.991178e-03 0
2.693586e+00 4.982471e-03 0
2.692056e+00 4.972898e-03 0
2.690526e+00 4.962481e-03 0
2.688997e+00 4.951240e-03 0
2.687469e+00 4.939193e-03 0
2.685942e+00 4.926357e-03 0
2.684416e+00 4.912748e-03 0
2.682891e+00 4.898380e-03 0
2.681368e+00 4.883263e-03 0
2.679847e+00 4.867403e-03 0
2.678327e+00 4.850806e-03 0
2.676810e+00 4.833475e-03 0
2.675295e+00 4.815414e-03 0
2.673783e+00 4.796625e-03 0
2.672273e+00 4.777109e-03 0
2.670766e+00 4.756864e-03 0
2.669262e+00 4.735883e-03 0
2.667761e+00 4.714158e-03 0
2.666264e+00 4.691681e-03 0
2.664770e+00 4.668443e-03 0
2.663281e+00 4.644432e-03 0
2.661795e+00 4.619638e-03 0
2.660313e+00 4.594045e-03 0
2.658836e+00 4.567634e-03 0
2.657363e+00 4.540379e-03 0
2.655895e+00 4.512248e-03 0
2.654432e+00 4.483200e-03 0
2.652974e+00 4.453178e-03 0
2.651522e+00 4.422110e-03 0
2.650076e+00 4.389894e-03 0
2.648635e+00 4.356385e-03 0
2.647201e+00 4.321383e-03 0
2.645773e+00 4.284599e-03 0
2.644352e+00 4.245612e-03 0
2.642939e+00 4.203809e-03 0
2.641532e+00 4.158272e-03 0
2.640134e+00 4.107637e-03 0
2.638744e+00 4.049860e-03 0
2.637361e+00 3.982003e-03 0
2.635984e+00 3.900393e-03 0
2.634608e+00 3.801533e-03 0
2.633220e+00 3.707633e-03 0
2.633220e+00 3.667857e-03 0
3.160574e+00 -2.387382e-04 0
3.160574e+00 -2.298690e-04 0
3.160636e+00 -1.947655e-04 0
3.160692e+00 -1.238335e-04 0
3.160739e+00 -1.481211e-05 0
3.160773e+00 1.354582e-04 0
3.160789e+00 3.313458e-04 0
3.160781e+00 5.782518e-04 0
3.160743e+00 8.827514e-04 0
3.160668e+00 1.252457e-03 0
3.160546e+00 1.696064e-03 0
3.160368e+00 2.223344e-03 0
3.160121e+00 2.845119e-03 0
3.159793e+00 3.573458e-03 0
3.159369e+00 4.421931e-03 0
3.158833e+00 5.405820e-03 0
3.158167e+00 6.542471e-03 0
3.157352e+00 7.851863e-03 0
3.156366e+00 9.357431e-03 0
3.155186e+00 1.108699e-02 0
3.153786e+00 1.307406e-02 0
3.152138e+00 1.535956e-02 0
3.150209e+00 1.799412e-02 0
3.147962e+00 2.104082e-02 0
3.145349e+00 2.457891e-02 0
3.142305e+00 2.870866e-02 0
3.138738e+00 3.355698e-02 0
3.134490e+00 3.928191e-02 0
3.129281e+00 4.606485e-02 0
3.122557e+00 5.404915e-02 0
3.113210e+00 6.308039e-02 0
3.099097e+00 7.183886e-02 0
3.076925e+00 7.558855e-02 0
3.050698e+00 6.765856e-02 0
3.038405e+00 5.187473e-02 0
3.034095e+00 3.726548e-02 0
3.033153e+00 2.605476e-02 0
3.033421e+00 1.792215e-02 0
3.034033e+00 1.209590e-02 0
3.034674e+00 7.916421e-03 0
3.035240e+00 4.907472e-03 0
3.035704e+00 2.740126e-03 0
3.036055e+00 1.187388e-03 0
3.036300e+00 8.879221e-05 0
3.036442e+00 -6.692929e-04 0
3.036485e+00 -1.165436e-03 0
3.036441e+00 -1.455277e-03 0
3.036321e+00 -1.581040e-03 0
3.036138e+00 -1.576282e-03 0
3.035901e+00 -1.468382e-03 0
3.035618e+00 -1.279986e-03 0
3.035298e+00 -1.029899e-03 0
3.034945e+00 -7.335716e-04 0
3.034565e+00 -4.035278e-04 0
3.034160e+00 -5.565617e-05 0
3.033734e+00 2.983621e-04 0
3.033282e+00 6.547673e-04 0
3.032800e+00 1.007900e-03 0
3.032287e+00 1.351485e-03 0
3.031743e+00 1.680835e-03 0
3.031164e+00 1.993527e-03 0
3.030550e+00 2.288764e-03 0
3.029901e+00 2.566816e-03 0
3.029216e+00 2.828545e-03 0
3.028496e+00 3.074979e-03 0
3.027744e+00 3.307106e-03 0
3.026959e+00 3.525811e-03 0
3.026144e+00 3.731881e-03 0
3.025301e+00 3.926024e-03 0
3.024430e+00 4.108889e-03 0
3.023532e+00 4.281075e-03 0
3.022611e+00 4.443140e-03 0