<?xml version="1.0"?>
<VTKFile type="StructuredGrid">
<StructuredGrid WholeExtent="0 158 0 30 0 0 ">
<Piece Extent="0 158 0 30 0 0 ">
<Points>
<DataArray type="Float64" format="ascii" NumberOfComponents="3">
0.000000e+00 0.000000e+00 0.000000e+00
3.164557e-02 0.000000e+00 0.000000e+00
6.329114e-02 0.000000e+00 0.000000e+00
9.493671e-02 0.000000e+00 0.000000e+00
1.265823e-01 0.000000e+00 0.000000e+00
1.582278e-01 0.000000e+00 0.000000e+00
1.898734e-01 0.000000e+00 0.000000e+00
2.215190e-01 0.000000e+00 0.000000e+00
2.531646e-01 0.000000e+00 0.000000e+00
2.848101e-01 0.000000e+00 0.000000e+00
3.164557e-01 0.000000e+00 0.000000e+00
3.481013e-01 0.000000e+00 0.000000e+00
3.797468e-01 0.000000e+00 0.000000e+00
4.113924e-01 0.000000e+00 0.000000e+00
4.430380e-01 0.000000e+00 0.000000e+00
4.746835e-01 0.000000e+00 0.000000e+00
5.063291e-01 0.000000e+00 0.000000e+00
5.379747e-01 0.000000e+00 0.000000e+00
5.696203e-01 0.000000e+00 0.000000e+00
6.012658e-01 0.000000e+00 0.000000e+00
6.329114e-01 0.000000e+00 0.000000e+00
6.645570e-01 0.000000e+00 0.000000e+00
6.962025e-01 0.000000e+00 0.000000e+00
7.278481e-01 0.000000e+00 0.000000e+00
7.594937e-01 0.000000e+00 0.000000e+00
7.911392e-01 0.000000e+00 0.000000e+00
8.227848e-01 0.000000e+00 0.000000e+00
8.544304e-01 0.000000e+00 0.000000e+00
8.860759e-01 0.000000e+00 0.000000e+00
9.177215e-01 0.000000e+00 0.000000e+00
9.493671e-01 0.000000e+00 0.000000e+00
9.810127e-01 0.000000e+00 0.000000e+00
1.012658e+00 0.000000e+00 0.000000e+00
1.044304e+00 0.000000e+00 0.000000e+00
1.075949e+00 0.000000e+00 0.000000e+00
1.107595e+00 0.000000e+00 0.000000e+00
1.139241e+00 0.000000e+00 0.000000e+00
1.170886e+00 0.000000e+00 0.000000e+00
1.202532e+00 0.000000e+00 0.000000e+00
1.234177e+00 0.000000e+00 0.000000e+00
1.265823e+00 0.000000e+00 0.000000e+00
1.297468e+00 0.000000e+00 0.000000e+00
1.329114e+00 0.000000e+00 0.000000e+00
1.360759e+00 0.000000e+00 0.000000e+00
1.392405e+00 0.000000e+00 0.000000e+00
1.424051e+00 0.000000e+00 0.000000e+00
1.455696e+00 0.000000e+00 0.000000e+00
1.487342e+00 0.000000e+00 0.000000e+00
1.518987e+00 0.000000e+00 0.000000e+00
1.550633e+00 0.000000e+00 0.000000e+00
1.582278e+00 0.000000e+00 0.000000e+00
1.613924e+00 0.000000e+00 0.000000e+00
1.645570e+00 0.000000e+00 0.000000e+00
1.677215e+00 0.000000e+00 0.000000e+00
1.708861e+00 0.000000e+00 0.000000e+00
1.740506e+00 0.000000e+00 0.000000e+00
1.772152e+00 0.000000e+00 0.000000e+00
1.803797e+00 0.000000e+00 0.000000e+00
1.835443e+00 0.000000e+00 0.000000e+00
1.867089e+00 0.000000e+00 0.000000e+00
1.898734e+00 0.000000e+00 0.000000e+00
1.930380e+00 0.000000e+00 0.000000e+00
1.962025e+00 0.000000e+00 0.000000e+00
1.993671e+00 0.000000e+00 0.000000e+00
2.025316e+00 0.000000e+00 0.000000e+00
2.056962e+00 0.000000e+00 0.000000e+00
2.088608e+00 0.000000e+00 0.000000e+00
2.120253e+00 0.000000e+00 0.000000e+00
2.151899e+00 0.000000e+00 0.000000e+00
2.183544e+00 0.000000e+00 0.000000e+00
2.215190e+00 0.000000e+00 0.000000e+00
2.246835e+00 0.000000e+00 0.000000e+00
2.278481e+00 0.000000e+00 0.000000e+00
2.310127e+00 0.000000e+00 0.000000e+00
2.341772e+00 0.000000e+00 0.000000e+00
2.373418e+00 0.000000e+00 0.000000e+00
2.405063e+00 0.000000e+00 0.000000e+00
2.436709e+00 0.000000e+00 0.000000e+00
2.468354e+00 0.000000e+00 0.000000e+00
2.500000e+00 0.000000e+00 0.000000e+00
2.531646e+00 0.000000e+00 0.000000e+00
2.563291e+00 0.000000e+00 0.000000e+00
2.594937e+00 0.000000e+00 0.000000e+00
2.626582e+00 0.000000e+00 0.000000e+00
2.658228e+00 0.000000e+00 0.000000e+00
2.689873e+00 0.000000e+00 0.000000e+00
2.721519e+00 0.000000e+00 0.000000e+00
2.753165e+00 0.000000e+00 0.000000e+00
2.784810e+00 0.000000e+00 0.000000e+00
2.816456e+00 0.000000e+00 0.000000e+00
2.848101e+00 0.000000e+00 0.000000e+00
2.879747e+00 0.000000e+00 0.000000e+00
2.911392e+00 0.000000e+00 0.000000e+00
2.943038e+00 0.000000e+00 0.000000e+00
2.974684e+00 0.000000e+00 0.000000e+00
3.006329e+00 0.000000e+00 0.000000e+00
3.037975e+00 0.000000e+00 0.000000e+00
3.069620e+00 0.000000e+00 0.000000e+00
3.101266e+00 0.000000e+00 0.000000e+00
3.132911e+00 0.000000e+00 0.000000e+00
3.164557e+00 0.000000e+00 0.000000e+00
3.196203e+00 0.000000e+00 0.000000e+00
3.227848e+00 0.000000e+00 0.000000e+00
3.259494e+00 0.000000e+00 0.000000e+00
3.291139e+00 0.000000e+00 0.000000e+00
3.322785e+00 0.000000e+00 0.000000e+00
3.354430e+00 0.000000e+00 0.000000e+00
3.386076e+00 0.000000e+00 0.000000e+00
3.417722e+00 0.000000e+00 0.000000e+00
3.449367e+00 0.000000e+00 0.000000e+00
3.481013e+00 0.000000e+00 0.000000e+00
3.512658e+00 0.000000e+00 0.000000e+00
3.544304e+00 0.000000e+00 0.000000e+00
3.575949e+00 0.000000e+00 0.000000e+00
3.607595e+00 0.000000e+00 0.000000e+00
3.639241e+00 0.000000e+00 0.000000e+00
3.670886e+00 0.000000e+00 0.000000e+00
3.702532e+00 0.000000e+00 0.000000e+00
3.734177e+00 0.000000e+00 0.000000e+00
3.765823e+00 0.000000e+00 0.000000e+00
3.797468e+00 0.000000e+00 0.000000e+00
3.829114e+00 0.000000e+00 0.000000e+00
3.860759e+00 0.000000e+00 0.000000e+00
3.892405e+00 0.000000e+00 0.000000e+00
3.924051e+00 0.000000e+00 0.000000e+00
3.955696e+00 0.000000e+00 0.000000e+00
3.987342e+00 0.000000e+00 0.000000e+00
4.018987e+00 0.000000e+00 0.000000e+00
4.050633e+00 0.000000e+00 0.000000e+00
4.082278e+00 0.000000e+00 0.000000e+00
4.113924e+00 0.000000e+00 0.000000e+00
4.145570e+00 0.000000e+00 0.000000e+00
4.177215e+00 0.000000e+00 0.000000e+00
4.208861e+00 0.000000e+00 0.000000e+00
4.240506e+00 0.000000e+00 0.000000e+00
4.272152e+00 0.000000e+00 0.000000e+00
4.303797e+00 0.000000e+00 0.000000e+00
4.335443e+00 0.000000e+00 0.000000e+00
4.367089e+00 0.000000e+00 0.000000e+00
4.398734e+00 0.000000e+00 0.000000e+00
4.430380e+00 0.000000e+00 0.000000e+00
4.462025e+00 0.000000e+00 0.000000e+00
4.493671e+00 0.000000e+00 0.000000e+00
4.525316e+00 0.000000e+00 0.000000e+00
4.556962e+00 0.000000e+00 0.000000e+00
4.588608e+00 0.000000e+00 0.000000e+00
4.620253e+00 0.000000e+00 0.000000e+00
4.651899e+00 0.000000e+00 0.000000e+00
4.683544e+00 0.000000e+00 0.000000e+00
4.715190e+00 0.000000e+00 0.000000e+00
4.746835e+00 0.000000e+00 0.000000e+00
4.778481e+00 0.000000e+00 0.000000e+00
4.810127e+00 0.000000e+00 0.000000e+00
4.841772e+00 0.000000e+00 0.000000e+00
4.873418e+00 0.000000e+00 0.000000e+00
4.905063e+00 0.000000e+00 0.000000e+00
4.936709e+00 0.000000e+00 0.000000e+00
4.968354e+00 0.000000e+00 0.000000e+00
5.000000e+00 0.000000e+00 0.000000e+00
0.000000e+00 3.333333e-02 0.000000e+00
3.164557e-02 3.333333e-02 0.000000e+00
6.329114e-02 3.333333e-02 0.000000e+00
9.493671e-02 3.333333e-02 0.000000e+00
1.265823e-01 3.333333e-02 0.000000e+00
1.582278e-01 3.333333e-02 0.000000e+00
1.898734e-01 3.333333e-02 0.000000e+00
2.215190e-01 3.333333e-02 0.000000e+00
2.531646e-01 3.333333e-02 0.000000e+00
2.848101e-01 3.333333e-02 0.000000e+00
3.164557e-01 3.333333e-02 0.000000e+00
3.481013e-01 3.333333e-02 0.000000e+00
3.797468e-01 3.333333e-02 0.000000e+00
4.113924e-01 3.333333e-02 0.000000e+00
4.430380e-01 3.333333e-02 0.000000e+00
4.746835e-01 3.333333e-02 0.000000e+00
5.063291e-01 3.333333e-02 0.000000e+00
5.379747e-01 3.333333e-02 0.000000e+00
5.696203e-01 3.333333e-02 0.000000e+00
6.012658e-01 3.333333e-02 0.000000e+00
6.329114e-01 3.333333e-02 0.000000e+00
6.645570e-01 3.333333e-02 0.000000e+00
6.962025e-01 3.333333e-02 0.000000e+00
7.278481e-01 3.333333e-02 0.000000e+00
7.594937e-01 3.333333e-02 0.000000e+00
7.911392e-01 3.333333e-02 0.000000e+00
8.227848e-01 3.333333e-02 0.000000e+00
8.544304e-01 3.333333e-02 0.000000e+00
8.860759e-01 3.333333e-02 0.000000e+00
9.177215e-01 3.333333e-02 0.000000e+00
9.493671e-01 3.333333e-02 0.000000e+00
9.810127e-01 3.333333e-02 0.000000e+00
1.012658e+00 3.333333e-02 0.000000e+00
1.044304e+00 3.333333e-02 0.000000e+00
1.075949e+00 3.333333e-02 0.000000e+00
1.107595e+00 3.333333e-02 0.000000e+00
1.139241e+00 3.333333e-02 0.000000e+00
1.170886e+00 3.333333e-02 0.000000e+00
1.202532e+00 3.333333e-02 0.000000e+00
1.234177e+00 3.333333e-02 0.000000e+00
1.265823e+00 3.333333e-02 0.000000e+00
1.297468e+00 3.333333e-02 0.000000e+00
1.329114e+00 3.333333e-02 0.000000e+00
1.360759e+00 3.333333e-02 0.000000e+00
1.392405e+00 3.333333e-02 0.000000e+00
1.424051e+00 3.333333e-02 0.000000e+00
1.455696e+00 3.333333e-02 0.000000e+00
1.487342e+00 3.333333e-02 0.000000e+00
1.518987e+00 3.333333e-02 0.000000e+00
1.550633e+00 3.333333e-02 0.000000e+00
1.582278e+00 3.333333e-02 0.000000e+00
1.613924e+00 3.333333e-02 0.000000e+00
1.645570e+00 3.333333e-02 0.000000e+00
1.677215e+00 3.333333e-02 0.000000e+00
1.708861e+00 3.333333e-02 0.000000e+00
1.740506e+00 3.333333e-02 0.000000e+00
1.772152e+00 3.333333e-02 0.000000e+00
1.803797e+00 3.333333e-02 0.000000e+00
1.835443e+00 3.333333e-02 0.000000e+00
1.867089e+00 3.333333e-02 0.000000e+00
1.898734e+00 3.333333e-02 0.000000e+00
1.930380e+00 3.333333e-02 0.000000e+00
1.962025e+00 3.333333e-02 0.000000e+00
1.993671e+00 3.333333e-02 0.000000e+00
2.025316e+00 3.333333e-02 0.000000e+00
2.056962e+00 3.333333e-02 0.000000e+00
2.088608e+00 3.333333e-02 0.000000e+00
2.120253e+00 3.333333e-02 0.000000e+00
2.151899e+00 3.333333e-02 0.000000e+00
2.183544e+00 3.333333e-02 0.000000e+00
2.215190e+00 3.333333e-02 0.000000e+00
2.246835e+00 3.333333e-02 0.000000e+00
2.278481e+00 3.333333e-02 0.000000e+00
2.310127e+00 3.333333e-02 0.000000e+00
2.341772e+00 3.333333e-02 0.000000e+00
2.373418e+00 3.333333e-02 0.000000e+00
2.405063e+00 3.333333e-02 0.000000e+00
2.436709e+00 3.333333e-02 0.000000e+00
2.468354e+00 3.333333e-02 0.000000e+00
2.500000e+00 3.333333e-02 0.000000e+00
2.531646e+00 3.333333e-02 0.000000e+00
2.563291e+00 3.333333e-02 0.000000e+00
2.594937e+00 3.333333e-02 0.000000e+00
2.626582e+00 3.333333e-02 0.000000e+00
2.658228e+00 3.333333e-02 0.000000e+00
2.689873e+00 3.333333e-02 0.000000e+00
2.721519e+00 3.333333e-02 0.000000e+00
2.753165e+00 3.333333e-02 0.000000e+00
2.784810e+00 3.333333e-02 0.000000e+00
2.816456e+00 3.333333e-02 0.000000e+00
2.848101e+00 3.333333e-02 0.000000e+00
2.879747e+00 3.333333e-02 0.000000e+00
[...]
<PointData>
<DataArray Name="Velocity" type="Float64" format="ascii" NumberOfComponents="3">
0.000000e+00 0.000000e+00 0
0.000000e+00 0.000000e+00 0
0.000000e+00 0.000000e+00 0
0.000000e+00 0.000000e+00 0
0.000000e+00 0.000000e+00 0
0.000000e+00 0.000000e+00 0
0.000000e+00 0.000000e+00 0
0.000000e+00 0.000000e+00 0
0.000000e+00 0.000000e+00 0
0.000000e+00 0.000000e+00 0
0.000000e+00 0.000000e+00 0
0.000000e+00 0.000000e+00 0
0.000000e+00 0.000000e+00 0
0.000000e+00 0.000000e+00 0
0.000000e+00 0.000000e+00 0
0.000000e+00 0.000000e+00 0
0.000000e+00 0.000000e+00 0
0.000000e+00 0.000000e+00 0
0.000000e+00 0.000000e+00 0
-1.321135e-17 0.000000e+00 0
0.000000e+00 0.000000e+00 0
0.000000e+00 0.000000e+00 0
0.000000e+00 0.000000e+00 0
-4.626355e-17 0.000000e+00 0
0.000000e+00 0.000000e+00 0
0.000000e+00 0.000000e+00 0
0.000000e+00 0.000000e+00 0
4.466397e-18 0.000000e+00 0
0.000000e+00 0.000000e+00 0
0.000000e+00 0.000000e+00 0
0.000000e+00 0.000000e+00 0
1.804928e-17 0.000000e+00 0
0.000000e+00 0.000000e+00 0
0.000000e+00 0.000000e+00 0
0.000000e+00 0.000000e+00 0
0.000000e+00 0.000000e+00 0
0.000000e+00 0.000000e+00 0
0.000000e+00 0.000000e+00 0
-1.748782e-17 0.000000e+00 0
0.000000e+00 0.000000e+00 0
0.000000e+00 0.000000e+00 0
0.000000e+00 0.000000e+00 0
0.000000e+00 0.000000e+00 0
0.000000e+00 0.000000e+00 0
0.000000e+00 0.000000e+00 0
0.000000e+00 0.000000e+00 0
-1.798292e-17 0.000000e+00 0
0.000000e+00 0.000000e+00 0
0.000000e+00 0.000000e+00 0
0.000000e+00 0.000000e+00 0
0.000000e+00 0.000000e+00 0
0.000000e+00 0.000000e+00 0
0.000000e+00 0.000000e+00 0
0.000000e+00 0.000000e+00 0
1.603976e-17 0.000000e+00 0
0.000000e+00 0.000000e+00 0
0.000000e+00 0.000000e+00 0
0.000000e+00 0.000000e+00 0
0.000000e+00 0.000000e+00 0
0.000000e+00 0.000000e+00 0
0.000000e+00 0.000000e+00 0
0.000000e+00 0.000000e+00 0
1.762512e-17 0.000000e+00 0
0.000000e+00 0.000000e+00 0
0.000000e+00 0.000000e+00 0
0.000000e+00 0.000000e+00 0
0.000000e+00 0.000000e+00 0
0.000000e+00 0.000000e+00 0
0.000000e+00 0.000000e+00 0
0.000000e+00 0.000000e+00 0
0.000000e+00 0.000000e+00 0
0.000000e+00 0.000000e+00 0
0.000000e+00 0.000000e+00 0
0.000000e+00 0.000000e+00 0
0.000000e+00 0.000000e+00 0
0.000000e+00 0.000000e+00 0
0.000000e+00 0.000000e+00 0
0.000000e+00 0.000000e+00 0
0.000000e+00 0.000000e+00 0
0.000000e+00 0.000000e+00 0
0.000000e+00 0.000000e+00 0
0.000000e+00 0.000000e+00 0
0.000000e+00 0.000000e+00 0
0.000000e+00 0.000000e+00 0
0.000000e+00 0.000000e+00 0
0.000000e+00 0.000000e+00 0
0.000000e+00 0.000000e+00 0
0.000000e+00 0.000000e+00 0
0.000000e+00 0.000000e+00 0
0.000000e+00 0.000000e+00 0
0.000000e+00 0.000000e+00 0
0.000000e+00 0.000000e+00 0
0.000000e+00 0.000000e+00 0
0.000000e+00 0.000000e+00 0
0.000000e+00 0.000000e+00 0
0.000000e+00 0.000000e+00 0
0.000000e+00 0.000000e+00 0
0.000000e+00 0.000000e+00 0
0.000000e+00 0.000000e+00 0
0.000000e+00 0.000000e+00 0
0.000000e+00 0.000000e+00 0
0.000000e+00 0.000000e+00 0
0.000000e+00 0.000000e+00 0
0.000000e+00 0.000000e+00 0
0.000000e+00 0.000000e+00 0
0.000000e+00 0.000000e+00 0
0.000000e+00 0.000000e+00 0
0.000000e+00 0.000000e+00 0
0.000000e+00 0.000000e+00 0
0.000000e+00 0.000000e+00 0
0.000000e+00 0.000000e+00 0
0.000000e+00 0.000000e+00 0
0.000000e+00 0.000000e+00 0
0.000000e+00 0.000000e+00 0
0.000000e+00 0.000000e+00 0
0.000000e+00 0.000000e+00 0
0.000000e+00 0.000000e+00 0
0.000000e+00 0.000000e+00 0
0.000000e+00 0.000000e+00 0
0.000000e+00 0.000000e+00 0
0.000000e+00 0.000000e+00 0
0.000000e+00 0.000000e+00 0
0.000000e+00 0.000000e+00 0
0.000000e+00 0.000000e+00 0
0.000000e+00 0.000000e+00 0
0.000000e+00 0.000000e+00 0
0.000000e+00 0.000000e+00 0
0.000000e+00 0.000000e+00 0
0.000000e+00 0.000000e+00 0
0.000000e+00 0.000000e+00 0
0.000000e+00 0.000000e+00 0
0.000000e+00 0.000000e+00 0
0.000000e+00 0.000000e+00 0
0.000000e+00 0.000000e+00 0
0.000000e+00 0.000000e+00 0
0.000000e+00 0.000000e+00 0
0.000000e+00 0.000000e+00 0
0.000000e+00 0.000000e+00 0
0.000000e+00 0.000000e+00 0
0.000000e+00 0.000000e+00 0
0.000000e+00 0.000000e+00 0
0.000000e+00 0.000000e+00 0
0.000000e+00 0.000000e+00 0
0.000000e+00 0.000000e+00 0
0.000000e+00 0.000000e+00 0
0.000000e+00 0.000000e+00 0
0.000000e+00 0.000000e+00 0
0.000000e+00 0.000000e+00 0
0.000000e+00 0.000000e+00 0
0.000000e+00 0.000000e+00 0
0.000000e+00 0.000000e+00 0
0.000000e+00 0.000000e+00 0
0.000000e+00 0.000000e+00 0
0.000000e+00 0.000000e+00 0
0.000000e+00 0.000000e+00 0
0.000000e+00 0.000000e+00 0
0.000000e+00 0.000000e+00 0
0.000000e+00 0.000000e+00 0
0.000000e+00 0.000000e+00 0
1.800718e+00 -3.949836e-05 0
1.800718e+00 -4.190919e-05 0
1.800752e+00 -3.636496e-05 0
1.800772e+00 -1.420308e-05 0
1.800767e+00 1.850810e-05 0
1.800728e+00 6.121280e-05 0
1.800643e+00 1.161577e-04 0
1.800499e+00 1.850126e-04 0
1.800282e+00 2.695054e-04 0
1.799976e+00 3.715670e-04 0
1.799564e+00 4.933896e-04 0
1.799026e+00 6.374494e-04 0
1.798340e+00 8.065011e-04 0
1.797480e+00 1.003633e-03 0
1.796417e+00 1.232356e-03 0
1.795121e+00 1.496652e-03 0
1.793555e+00 1.801093e-03 0
1.791678e+00 2.150993e-03 0
1.789445e+00 2.552575e-03 0
1.786803e+00 3.013220e-03 0
1.783691e+00 3.541751e-03 0
1.780042e+00 4.148750e-03 0
1.775773e+00 4.846836e-03 0
1.770793e+00 5.650775e-03 0
1.764991e+00 6.577105e-03 0
1.758241e+00 7.642688e-03 0
1.750401e+00 8.860884e-03 0
1.741314e+00 1.023313e-02 0
1.730827e+00 1.173220e-02 0
1.718826e+00 1.327303e-02 0
1.705308e+00 1.467212e-02 0
1.690511e+00 1.561642e-02 0
1.675080e+00 1.570909e-02 0
1.660142e+00 1.469317e-02 0
1.646946e+00 1.274143e-02 0
1.636131e+00 1.035058e-02 0
1.627742e+00 7.976752e-03 0
1.621493e+00 5.884473e-03 0
1.616993e+00 4.167888e-03 0
1.613858e+00 2.819495e-03 0
1.611762e+00 1.785615e-03 0
1.610448e+00 9.957820e-04 0
1.609721e+00 3.455314e-04 0
1.609439e+00 -2.405187e-04 0
1.609502e+00 -7.296646e-04 0
1.609827e+00 -1.087262e-03 0
1.610334e+00 -1.327726e-03 0
1.610956e+00 -1.467769e-03 0
1.611636e+00 -1.524320e-03 0
1.612328e+00 -1.513159e-03 0
1.612994e+00 -1.448299e-03 0
1.613605e+00 -1.341831e-03 0
1.614139e+00 -1.203989e-03 0
1.614580e+00 -1.043312e-03 0
1.614914e+00 -8.667248e-04 0
1.615136e+00 -6.792704e-04 0
1.615240e+00 -4.838369e-04 0
1.615237e+00 -2.888535e-04 0
1.615137e+00 -1.150143e-04 0
1.614951e+00 1.457635e-05 0
1.614684e+00 1.074145e-04 0
1.614344e+00 1.858898e-04 0
1.613937e+00 2.566298e-04 0
1.613468e+00 3.219835e-04 0
1.612941e+00 3.829638e-04 0
1.612358e+00 4.401003e-04 0
1.611724e+00 4.937274e-04 0
1.611041e+00 5.440960e-04 0
1.610313e+00 5.914159e-04 0
1.609542e+00 6.358678e-04 0
1.608730e+00 6.776027e-04 0
1.607881e+00 7.167442e-04 0
1.606995e+00 7.533989e-04 0
1.606076e+00 7.876713e-04 0
1.605126e+00 8.196754e-04 0
1.604146e+00 8.495344e-04 0
1.603139e+00 8.773709e-04 0
1.602106e+00 9.032947e-04 0
1.601049e+00 9.273969e-04 0
1.599970e+00 9.497556e-04 0
1.598870e+00 9.704459e-04 0
1.597751e+00 9.895483e-04 0
1.596614e+00 1.007149e-03 0
1.595461e+00 1.023336e-03 0
1.594292e+00 1.038189e-03 0
1.593109e+00 1.051779e-03 0
1.591913e+00 1.064169e-03 0
1.590706e+00 1.075417e-03 0
1.589487e+00 1.085579e-03 0
1.588259e+00 1.094712e-03 0
1.587021e+00 1.102871e-03 0
1.585776e+00 1.110110e-03 0
1.584523e+00 1.116480e-03 0
1.583264e+00 1.122027e-03 0
1.581999e+00 1.126798e-03 0
1.580729e+00 1.130831e-03 0
1.579455e+00 1.134166e-03 0
1.578177e+00 1.136836e-03 0
1.576895e+00 1.138874e-03 0
1.575612e+00 1.140312e-03 0
1.574326e+00 1.141186e-03 0
1.573038e+00 1.141532e-03 0
1.571749e+00 1.141380e-03 0
1.570460e+00 1.140753e-03 0
1.569171e+00 1.139670e-03 0
1.567882e+00 1.138150e-03 0
1.566593e+00 1.136215e-03 0
1.565306e+00 1.133888e-03 0
1.564020e+00 1.131189e-03 0
1.562735e+00 1.128137e-03 0
1.561453e+00 1.124746e-03 0
1.560173e+00 1.121033e-03 0
1.558896e+00 1.117017e-03 0
1.557621e+00 1.112714e-03 0
1.556350e+00 1.108132e-03 0
1.555082e+00 1.103277e-03 0
1.553818e+00 1.098154e-03 0
1.552558e+00 1.092772e-03 0
1.551302e+00 1.087146e-03 0
1.550050e+00 1.081292e-03 0
1.548804e+00 1.075218e-03 0
1.547562e+00 1.068930e-03 0
1.546325e+00 1.062428e-03 0
1.545093e+00 1.055713e-03 0
1.543867e+00 1.048789e-03 0
1.542646e+00 1.041663e-03 0
1.541432e+00 1.034339e-03 0
1.540223e+00 1.026822e-03 0
1.539021e+00 1.019112e-03 0
1.537825e+00 1.011212e-03 0
1.536636e+00 1.003121e-03 0
1.535453e+00 9.948400e-04 0
1.534278e+00 9.863684e-04 0
1.533109e+00 9.777058e-04 0
1.531949e+00 9.688516e-04 0
1.530795e+00 9.598049e-04 0
1.529650e+00 9.505640e-04 0
1.528512e+00 9.411266e-04 0
1.527383e+00 9.314890e-04 0
1.526262e+00 9.216470e-04 0
1.525150e+00 9.115947e-04 0
1.524046e+00 9.013240e-04 0
1.522951e+00 8.908248e-04 0
1.521866e+00 8.800822e-04 0
1.520790e+00 8.690760e-04 0
1.519724e+00 8.577764e-04 0
1.518668e+00 8.461403e-04 0
1.517623e+00 8.341044e-04 0
1.516588e+00 8.215745e-04 0
1.515564e+00 8.084076e-04 0
1.514553e+00 7.943836e-04 0
1.513555e+00 7.791521e-04 0
1.512571e+00 7.621269e-04 0
1.511603e+00 7.422559e-04 0
1.510655e+00 7.172558e-04 0
1.509731e+00 6.828496e-04 0
1.508840e+00 5.988397e-04 0
1.507997e+00 6.828846e-04 0
1.507997e+00 8.307156e-04 0
2.830559e+00 -7.824835e-05 0
2.830559e+00 -7.523008e-05 0
2.830588e+00 -5.715288e-05 0
2.830606e+00 -1.642757e-05 0
2.830603e+00 4.596420e-05 0
2.830570e+00 1.313519e-04 0
2.830496e+00 2.419062e-04 0
2.830370e+00 3.804696e-04 0
2.830180e+00 5.503902e-04 0
2.829911e+00 7.555347e-04 0
2.829548e+00 1.000314e-03 0
2.829072e+00 1.289683e-03 0
2.828465e+00 1.629191e-03 0
2.827703e+00 2.025088e-03 0
2.826761e+00 2.484416e-03 0
2.825611e+00 3.015169e-03 0
2.824220e+00 3.626517e-03 0
2.822553e+00 4.329086e-03 0
2.820569e+00 5.135366e-03 0
2.818221e+00 6.060194e-03 0
2.815457e+00 7.121332e-03 0
2.812214e+00 8.340138e-03 0
2.808423e+00 9.742197e-03 0
2.804000e+00 1.135767e-02 0
2.798846e+00 1.322090e-02 0
2.792846e+00 1.536798e-02 0
2.785861e+00 1.783008e-02 0
2.777728e+00 2.061761e-02 0
2.768261e+00 2.368721e-02 0
2.757266e+00 2.688015e-02 0
2.744595e+00 2.982549e-02 0
2.730293e+00 3.184080e-02 0
2.714920e+00 3.198828e-02 0
2.699995e+00 2.963401e-02 0
2.687489e+00 2.529195e-02 0
2.677912e+00 2.022896e-02 0
2.670917e+00 1.541843e-02 0
2.665932e+00 1.132137e-02 0
2.662436e+00 8.042303e-03 0
2.660024e+00 5.510357e-03 0
2.658398e+00 3.593027e-03 0
2.657338e+00 2.150040e-03 0
2.656683e+00 1.062692e-03 0
2.656271e+00 2.305192e-04 0
2.655979e+00 -4.092622e-04 0
2.655765e+00 -8.764348e-04 0
2.655597e+00 -1.189367e-03 0
2.655454e+00 -1.371144e-03 0
2.655319e+00 -1.444445e-03 0
2.655178e+00 -1.429848e-03 0
2.655021e+00 -1.345367e-03 0
2.654840e+00 -1.206471e-03 0
2.654629e+00 -1.026321e-03 0
2.654384e+00 -8.161423e-04 0
2.654100e+00 -5.856331e-04 0
2.653780e+00 -3.433145e-04 0
2.653429e+00 -1.063534e-04 0
2.653052e+00 1.085702e-04 0
2.652650e+00 3.013120e-04 0
2.652211e+00 4.775385e-04 0
2.651716e+00 6.389165e-04 0
2.651162e+00 7.864089e-04 0
2.650552e+00 9.228023e-04 0
2.649889e+00 1.050032e-03 0
2.649174e+00 1.169300e-03 0
2.648410e+00 1.281384e-03 0
2.647602e+00 1.386838e-03 0
2.646750e+00 1.486099e-03 0
2.645857e+00 1.579532e-03 0
2.644926e+00 1.667449e-03 0
2.643959e+00 1.750122e-03 0
2.642958e+00 1.827789e-03 0
2.641924e+00 1.900674e-03 0
2.640860e+00 1.968997e-03 0
2.639768e+00 2.032982e-03 0
2.638649e+00 2.092852e-03 0
2.637505e+00 2.148820e-03 0
2.636338e+00 2.201082e-03 0
2.635148e+00 2.249811e-03 0
2.633938e+00 2.295173e-03 0
2.632708e+00 2.337329e-03 0
2.631461e+00 2.376438e-03 0
2.630196e+00 2.412664e-03 0
2.628916e+00 2.446161e-03 0
2.627622e+00 2.477074e-03 0
2.626313e+00 2.505539e-03 0
2.624992e+00 2.531676e-03 0
2.623660e+00 2.555603e-03 0
2.622317e+00 2.577432e-03 0
2.620964e+00 2.597271e-03 0
2.619601e+00 2.615227e-03 0
2.618231e+00 2.631401e-03 0
2.616852e+00 2.645889e-03 0
2.615467e+00 2.658781e-03 0
2.614075e+00 2.670159e-03 0
2.612678e+00 2.680101e-03 0
2.611275e+00 2.688679e-03 0
2.609868e+00 2.695962e-03 0
2.608456e+00 2.702018e-03 0
2.607041e+00 2.706912e-03 0
2.605623e+00 2.710709e-03 0
2.604203e+00 2.713468e-03 0
2.602780e+00 2.715240e-03 0
2.601355e+00 2.716072e-03 0
2.599928e+00 2.716008e-03 0
2.598501e+00 2.715089e-03 0
2.597072e+00 2.713358e-03 0
2.595644e+00 2.710857e-03 0
2.594215e+00 2.707619e-03 0
2.592786e+00 2.703678e-03 0
2.591358e+00 2.699066e-03 0
2.589931e+00 2.693816e-03 0
2.588504e+00 2.687959e-03 0
2.587079e+00 2.681519e-03 0
2.585656e+00 2.674513e-03 0
2.584234e+00 2.666958e-03 0
2.582814e+00 2.658871e-03 0
2.581397e+00 2.650273e-03 0
2.579981e+00 2.641190e-03 0
2.578569e+00 2.631638e-03 0
2.577159e+00 2.621632e-03 0
2.575753e+00 2.611178e-03 0
2.574349e+00 2.600284e-03 0
2.572949e+00 2.588957e-03 0
2.571553e+00 2.577208e-03 0
2.570161e+00 2.565043e-03 0
2.568772e+00 2.552471e-03 0
2.567388e+00 2.539495e-03 0
2.566008e+00 2.526118e-03 0
2.564632e+00 2.512344e-03 0
2.563262e+00 2.498171e-03 0
2.561896e+00 2.483602e-03 0
2.560535e+00 2.468634e-03 0
2.559180e+00 2.453266e-03 0
2.557830e+00 2.437497e-03 0
2.556485e+00 2.421323e-03 0
2.555146e+00 2.404741e-03 0
2.553814e+00 2.387745e-03 0
2.552487e+00 2.370329e-03 0
2.551167e+00 2.352482e-03 0
2.549854e+00 2.334193e-03 0
2.548547e+00 2.315446e-03 0
2.547247e+00 2.296221e-03 0
2.545955e+00 2.276487e-03 0
2.544670e+00 2.256204e-03 0
2.543392e+00 2.235312e-03 0
2.542123e+00 2.213724e-03 0
2.540862e+00 2.191316e-03 0
2.539609e+00 2.167900e-03 0
2.538366e+00 2.143196e-03 0
2.537132e+00 2.116776e-03 0
2.535908e+00 2.087967e-03 0
2.534696e+00 2.055685e-03 0
2.533497e+00 2.018089e-03 0
2.532311e+00 1.971953e-03 0
2.531142e+00 1.911303e-03 0
2.529988e+00 1.826835e-03 0
2.528817e+00 1.808793e-03 0
2.528817e+00 1.840287e-03 0
3.388793e+00 -1.191967e-04 0
3.388793e+00 -1.127131e-04 0
3.388829e+00 -8.554065e-05 0
3.388856e+00 -2.967062e-05 0
3.388869e+00 5.606534e-05 0
3.388860e+00 1.738142e-04 0
3.388822e+00 3.265732e-04 0
3.388747e+00 5.182056e-04 0
3.388626e+00 7.533650e-04 0
3.388449e+00 1.037470e-03 0
3.388203e+00 1.376680e-03 0
3.387876e+00 1.777914e-03 0
3.387453e+00 2.248931e-03 0
3.386917e+00 2.798417e-03 0
3.386248e+00 3.436120e-03 0
3.385426e+00 4.173061e-03 0
3.384428e+00 5.021824e-03 0
3.383227e+00 5.996987e-03 0
3.381793e+00 7.115656e-03 0
3.380094e+00 8.398144e-03 0
3.378091e+00 9.868855e-03 0
3.375742e+00 1.155733e-02 0
3.372997e+00 1.349942e-02 0
3.369797e+00 1.573843e-02 0
3.366069e+00 1.832585e-02 0
3.361726e+00 2.132079e-02 0
3.356650e+00 2.478548e-02 0
3.350681e+00 2.877160e-02 0
3.343588e+00 3.328483e-02 0
3.335027e+00 3.820074e-02 0
3.324503e+00 4.308455e-02 0
3.311450e+00 4.687523e-02 0
3.295793e+00 4.762336e-02 0
3.279910e+00 4.358694e-02 0
3.268471e+00 3.600110e-02 0
3.261238e+00 2.780597e-02 0
3.256835e+00 2.059608e-02 0
3.254149e+00 1.481767e-02 0
3.252487e+00 1.039064e-02 0
3.251451e+00 7.073555e-03 0
3.250810e+00 4.615035e-03 0
3.250424e+00 2.802087e-03 0
3.250198e+00 1.470006e-03 0
3.250063e+00 5.005522e-04 0
3.249958e+00 -1.969764e-04 0
3.249848e+00 -6.850617e-04 0
3.249720e+00 -1.000365e-03 0
3.249569e+00 -1.174058e-03 0
3.249391e+00 -1.232791e-03 0
3.249187e+00 -1.199276e-03 0
3.248957e+00 -1.092783e-03 0
3.248702e+00 -9.296030e-04 0
3.248423e+00 -7.234754e-04 0
3.248119e+00 -4.862314e-04 0
3.247794e+00 -2.301220e-04 0
3.247450e+00 2.837223e-05 0
3.247089e+00 2.820428e-04 0
3.246700e+00 5.314420e-04 0
3.246275e+00 7.714865e-04 0
3.245810e+00 9.985270e-04 0
3.245304e+00 1.211722e-03 0
3.244754e+00 1.411321e-03 0
3.244163e+00 1.598473e-03 0
3.243531e+00 1.774353e-03 0
3.242860e+00 1.939920e-03 0
3.242152e+00 2.095927e-03 0
3.241408e+00 2.242987e-03 0
3.240631e+00 2.381618e-03 0
3.239822e+00 2.512269e-03 0
3.238983e+00 2.635339e-03 0
3.238115e+00 2.751183e-03 0
3.237221e+00 2.860129e-03 0
3.236302e+00 2.962490e-03 0
3.235359e+00 3.058579e-03 0
3.234393e+00 3.148704e-03 0
3.233406e+00 3.233164e-03 0
3.232399e+00 3.312241e-03 0
3.231374e+00 3.386195e-03 0
3.230331e+00 3.455270e-03 0
3.229272e+00 3.519698e-03 0
3.228197e+00 3.579710e-03 0
3.227108e+00 3.635530e-03 0
3.226005e+00 3.687376e-03 0
3.224890e+00 3.735459e-03 0
3.223763e+00 3.779973e-03 0
3.222625e+00 3.821099e-03 0
3.221476e+00 3.859010e-03 0
3.220318e+00 3.893866e-03 0
3.219151e+00 3.925825e-03 0
3.217976e+00 3.955039e-03 0
3.216793e+00 3.981653e-03 0
3.215603e+00 4.005806e-03 0
3.214407e+00 4.027627e-03 0
3.213204e+00 4.047239e-03 0
3.211997e+00 4.064754e-03 0
3.210784e+00 4.080279e-03 0
3.209566e+00 4.093915e-03 0
3.208344e+00 4.105760e-03 0
3.207119e+00 4.115907e-03 0
3.205890e+00 4.124448e-03 0
3.204658e+00 4.131467e-03 0
3.203424e+00 4.137042e-03 0
3.202187e+00 4.141241e-03 0
3.200948e+00 4.144130e-03 0
3.199707e+00 4.145771e-03 0
3.198465e+00 4.146226e-03 0
3.197221e+00 4.145553e-03 0
3.195977e+00 4.143805e-03 0
3.194732e+00 4.141030e-03 0
3.193486e+00 4.137273e-03 0
3.192241e+00 4.132579e-03 0
3.190995e+00 4.126995e-03 0
3.189749e+00 4.120557e-03 0
3.188504e+00 4.113296e-03 0
3.187259e+00 4.105238e-03 0
3.186015e+00 4.096408e-03 0
3.184772e+00 4.086837e-03 0
3.183530e+00 4.076554e-03 0
3.182290e+00 4.065588e-03 0
3.181051e+00 4.053957e-03 0
3.179813e+00 4.041676e-03 0
3.178577e+00 4.028759e-03 0
3.177343e+00 4.015217e-03 0
3.176111e+00 4.001065e-03 0
3.174882e+00 3.986314e-03 0
3.173655e+00 3.970974e-03 0
3.172430e+00 3.955052e-03 0
3.171208e+00 3.938553e-03 0
3.169988e+00 3.921482e-03 0
3.168772e+00 3.903840e-03 0
3.167559e+00 3.885629e-03 0
3.166349e+00 3.866849e-03 0
3.165142e+00 3.847498e-03 0
3.163939e+00 3.827573e-03 0
3.162739e+00 3.807072e-03 0
3.161543e+00 3.785991e-03 0
3.160352e+00 3.764324e-03 0
3.159164e+00 3.742062e-03 0
3.157981e+00 3.719195e-03 0
3.156802e+00 3.695711e-03 0
3.155627e+00 3.671595e-03 0
3.154457e+00 3.646826e-03 0
3.153292e+00 3.621376e-03 0
3.152133e+00 3.595207e-03 0
3.150978e+00 3.568265e-03 0
3.149829e+00 3.540474e-03 0
3.148685e+00 3.511725e-03 0
3.147547e+00 3.481860e-03 0
3.146415e+00 3.450646e-03 0
3.145290e+00 3.417742e-03 0
3.144171e+00 3.382638e-03 0
3.143058e+00 3.344573e-03 0
3.141952e+00 3.302390e-03 0
3.140854e+00 3.254349e-03 0
3.139762e+00 3.197916e-03 0
3.138674e+00 3.129881e-03 0
3.137587e+00 3.047170e-03 0
3.136489e+00 2.968674e-03 0
3.136489e+00 2.935543e-03 0
3.695441e+00 -1.653161e-04 0
3.695441e+00 -1.569070e-04 0
3.695485e+00 -1.240740e-04 0
3.695524e+00 -5.831860e-05 0
3.695554e+00 4.235267e-05 0
3.695572e+00 1.807204e-04 0
3.695572e+00 3.605822e-04 0
3.695549e+00 5.866600e-04 0
3.695498e+00 8.646227e-04 0
3.695411e+00 1.201038e-03 0
3.695280e+00 1.603361e-03 0
3.695096e+00 2.079961e-03 0
3.694849e+00 2.640161e-03 0
3.694527e+00 3.294321e-03 0
3.694116e+00 4.053976e-03 0
3.693603e+00 4.932060e-03 0
3.692971e+00 5.943260e-03 0
3.692204e+00 7.104480e-03 0
3.691281e+00 8.435446e-03 0
3.690182e+00 9.959552e-03 0
3.688884e+00 1.170498e-02 0
3.687363e+00 1.370608e-02 0
3.685589e+00 1.600521e-02 0
3.683529e+00 1.865512e-02 0
3.681141e+00 2.172204e-02 0
3.678371e+00 2.528967e-02 0
3.675136e+00 2.946383e-02 0
3.671306e+00 3.437595e-02 0
3.666641e+00 4.017646e-02 0
3.660677e+00 4.698290e-02 0
3.652480e+00 5.465992e-02 0
3.640241e+00 6.208286e-02 0
3.621169e+00 6.521012e-02 0
3.598771e+00 5.841284e-02 0
3.588142e+00 4.495990e-02 0
3.584292e+00 3.248503e-02 0
3.583330e+00 2.288527e-02 0
3.583429e+00 1.590116e-02 0
3.583848e+00 1.088438e-02 0
3.584314e+00 7.277169e-03 0
3.584737e+00 4.674710e-03 0
3.585091e+00 2.795052e-03 0
3.585369e+00 1.443102e-03 0
3.585569e+00 4.831614e-04 0
3.585697e+00 -1.831671e-04 0
3.585751e+00 -6.263459e-04 0
3.585736e+00 -8.945959e-04 0
3.585660e+00 -1.023865e-03 0
3.585529e+00 -1.042421e-03 0
3.585353e+00 -9.731937e-04 0
3.585139e+00 -8.351081e-04 0
3.584890e+00 -6.438992e-04 0
3.584614e+00 -4.123053e-04 0
3.584314e+00 -1.535631e-04 0
3.583992e+00 1.191084e-04 0
3.583650e+00 3.997429e-04 0
3.583281e+00 6.840019e-04 0
3.582886e+00 9.652765e-04 0
3.582463e+00 1.238750e-03 0
3.582011e+00 1.501166e-03 0
3.581529e+00 1.750926e-03 0
3.581016e+00 1.987540e-03 0
3.580473e+00 2.211262e-03 0
3.579900e+00 2.422647e-03 0
3.579298e+00 2.622326e-03 0
3.578669e+00 2.810907e-03 0
3.578012e+00 2.988959e-03 0
3.577331e+00 3.157004e-03 0
3.576626e+00 3.315521e-03 0
3.575898e+00 3.464951e-03 0
3.575148e+00 3.605702e-03 0
3.574379e+00 3.738163e-03 0