<?xml version="1.0"?>
<VTKFile type="StructuredGrid">
<StructuredGrid WholeExtent="0 158 0 30 0 0 ">
<Piece Extent="0 158 0 30 0 0 ">
<Points>
<DataArray type="Float64" format="ascii" NumberOfComponents="3">
0.000000e+00 0.000000e+00 0.000000e+00
3.164557e-02 0.000000e+00 0.000000e+00
6.329114e-02 0.000000e+00 0.000000e+00
9.493671e-02 0.000000e+00 0.000000e+00
1.265823e-01 0.000000e+00 0.000000e+00
1.582278e-01 0.000000e+00 0.000000e+00
1.898734e-01 0.000000e+00 0.000000e+00
2.215190e-01 0.000000e+00 0.000000e+00
2.531646e-01 0.000000e+00 0.000000e+00
2.848101e-01 0.000000e+00 0.000000e+00
3.164557e-01 0.000000e+00 0.000000e+00
3.481013e-01 0.000000e+00 0.000000e+00
3.797468e-01 0.000000e+00 0.000000e+00
4.113924e-01 0.000000e+00 0.000000e+00
4.430380e-01 0.000000e+00 0.000000e+00
4.746835e-01 0.000000e+00 0.000000e+00
5.063291e-01 0.000000e+00 0.000000e+00
5.379747e-01 0.000000e+00 0.000000e+00
5.696203e-01 0.000000e+00 0.000000e+00
6.012658e-01 0.000000e+00 0.000000e+00
6.329114e-01 0.000000e+00 0.000000e+00
6.645570e-01 0.000000e+00 0.000000e+00
6.962025e-01 0.000000e+00 0.000000e+00
7.278481e-01 0.000000e+00 0.000000e+00
7.594937e-01 0.000000e+00 0.000000e+00
7.911392e-01 0.000000e+00 0.000000e+00
8.227848e-01 0.000000e+00 0.000000e+00
8.544304e-01 0.000000e+00 0.000000e+00
8.860759e-01 0.000000e+00 0.000000e+00
9.177215e-01 0.000000e+00 0.000000e+00
9.493671e-01 0.000000e+00 0.000000e+00
9.810127e-01 0.000000e+00 0.000000e+00
1.012658e+00 0.000000e+00 0.000000e+00
1.044304e+00 0.000000e+00 0.000000e+00
1.075949e+00 0.000000e+00 0.000000e+00
1.107595e+00 0.000000e+00 0.000000e+00
1.139241e+00 0.000000e+00 0.000000e+00
1.170886e+00 0.000000e+00 0.000000e+00
1.202532e+00 0.000000e+00 0.000000e+00
1.234177e+00 0.000000e+00 0.000000e+00
1.265823e+00 0.000000e+00 0.000000e+00
1.297468e+00 0.000000e+00 0.000000e+00
1.329114e+00 0.000000e+00 0.000000e+00
1.360759e+00 0.000000e+00 0.000000e+00
1.392405e+00 0.000000e+00 0.000000e+00
1.424051e+00 0.000000e+00 0.000000e+00
1.455696e+00 0.000000e+00 0.000000e+00
1.487342e+00 0.000000e+00 0.000000e+00
1.518987e+00 0.000000e+00 0.000000e+00
1.550633e+00 0.000000e+00 0.000000e+00
1.582278e+00 0.000000e+00 0.000000e+00
1.613924e+00 0.000000e+00 0.000000e+00
1.645570e+00 0.000000e+00 0.000000e+00
1.677215e+00 0.000000e+00 0.000000e+00
1.708861e+00 0.000000e+00 0.000000e+00
1.740506e+00 0.000000e+00 0.000000e+00
1.772152e+00 0.000000e+00 0.000000e+00
1.803797e+00 0.000000e+00 0.000000e+00
1.835443e+00 0.000000e+00 0.000000e+00
1.867089e+00 0.000000e+00 0.000000e+00
1.898734e+00 0.000000e+00 0.000000e+00
1.930380e+00 0.000000e+00 0.000000e+00
1.962025e+00 0.000000e+00 0.000000e+00
1.993671e+00 0.000000e+00 0.000000e+00
2.025316e+00 0.000000e+00 0.000000e+00
2.056962e+00 0.000000e+00 0.000000e+00
2.088608e+00 0.000000e+00 0.000000e+00
2.120253e+00 0.000000e+00 0.000000e+00
2.151899e+00 0.000000e+00 0.000000e+00
2.183544e+00 0.000000e+00 0.000000e+00
2.215190e+00 0.000000e+00 0.000000e+00
2.246835e+00 0.000000e+00 0.000000e+00
2.278481e+00 0.000000e+00 0.000000e+00
2.310127e+00 0.000000e+00 0.000000e+00
2.341772e+00 0.000000e+00 0.000000e+00
2.373418e+00 0.000000e+00 0.000000e+00
2.405063e+00 0.000000e+00 0.000000e+00
2.436709e+00 0.000000e+00 0.000000e+00
2.468354e+00 0.000000e+00 0.000000e+00
2.500000e+00 0.000000e+00 0.000000e+00
2.531646e+00 0.000000e+00 0.000000e+00
2.563291e+00 0.000000e+00 0.000000e+00
2.594937e+00 0.000000e+00 0.000000e+00
2.626582e+00 0.000000e+00 0.000000e+00
2.658228e+00 0.000000e+00 0.000000e+00
2.689873e+00 0.000000e+00 0.000000e+00
2.721519e+00 0.000000e+00 0.000000e+00
2.753165e+00 0.000000e+00 0.000000e+00
2.784810e+00 0.000000e+00 0.000000e+00
2.816456e+00 0.000000e+00 0.000000e+00
2.848101e+00 0.000000e+00 0.000000e+00
2.879747e+00 0.000000e+00 0.000000e+00
2.911392e+00 0.000000e+00 0.000000e+00
2.943038e+00 0.000000e+00 0.000000e+00
2.974684e+00 0.000000e+00 0.000000e+00
3.006329e+00 0.000000e+00 0.000000e+00
3.037975e+00 0.000000e+00 0.000000e+00
3.069620e+00 0.000000e+00 0.000000e+00
3.101266e+00 0.000000e+00 0.000000e+00
3.132911e+00 0.000000e+00 0.000000e+00
3.164557e+00 0.000000e+00 0.000000e+00
3.196203e+00 0.000000e+00 0.000000e+00
3.227848e+00 0.000000e+00 0.000000e+00
3.259494e+00 0.000000e+00 0.000000e+00
3.291139e+00 0.000000e+00 0.000000e+00
3.322785e+00 0.000000e+00 0.000000e+00
3.354430e+00 0.000000e+00 0.000000e+00
3.386076e+00 0.000000e+00 0.000000e+00
3.417722e+00 0.000000e+00 0.000000e+00
3.449367e+00 0.000000e+00 0.000000e+00
3.481013e+00 0.000000e+00 0.000000e+00
3.512658e+00 0.000000e+00 0.000000e+00
3.544304e+00 0.000000e+00 0.000000e+00
3.575949e+00 0.000000e+00 0.000000e+00
3.607595e+00 0.000000e+00 0.000000e+00
3.639241e+00 0.000000e+00 0.000000e+00
3.670886e+00 0.000000e+00 0.000000e+00
3.702532e+00 0.000000e+00 0.000000e+00
3.734177e+00 0.000000e+00 0.000000e+00
3.765823e+00 0.000000e+00 0.000000e+00
3.797468e+00 0.000000e+00 0.000000e+00
3.829114e+00 0.000000e+00 0.000000e+00
3.860759e+00 0.000000e+00 0.000000e+00
3.892405e+00 0.000000e+00 0.000000e+00
3.924051e+00 0.000000e+00 0.000000e+00
3.955696e+00 0.000000e+00 0.000000e+00
3.987342e+00 0.000000e+00 0.000000e+00
4.018987e+00 0.000000e+00 0.000000e+00
4.050633e+00 0.000000e+00 0.000000e+00
4.082278e+00 0.000000e+00 0.000000e+00
4.113924e+00 0.000000e+00 0.000000e+00
4.145570e+00 0.000000e+00 0.000000e+00
4.177215e+00 0.000000e+00 0.000000e+00
4.208861e+00 0.000000e+00 0.000000e+00
4.240506e+00 0.000000e+00 0.000000e+00
4.272152e+00 0.000000e+00 0.000000e+00
4.303797e+00 0.000000e+00 0.000000e+00
4.335443e+00 0.000000e+00 0.000000e+00
4.367089e+00 0.000000e+00 0.000000e+00
4.398734e+00 0.000000e+00 0.000000e+00
4.430380e+00 0.000000e+00 0.000000e+00
4.462025e+00 0.000000e+00 0.000000e+00
4.493671e+00 0.000000e+00 0.000000e+00
4.525316e+00 0.000000e+00 0.000000e+00
4.556962e+00 0.000000e+00 0.000000e+00
4.588608e+00 0.000000e+00 0.000000e+00
4.620253e+00 0.000000e+00 0.000000e+00
4.651899e+00 0.000000e+00 0.000000e+00
4.683544e+00 0.000000e+00 0.000000e+00
4.715190e+00 0.000000e+00 0.000000e+00
4.746835e+00 0.000000e+00 0.000000e+00
4.778481e+00 0.000000e+00 0.000000e+00
4.810127e+00 0.000000e+00 0.000000e+00
4.841772e+00 0.000000e+00 0.000000e+00
4.873418e+00 0.000000e+00 0.000000e+00
4.905063e+00 0.000000e+00 0.000000e+00
4.936709e+00 0.000000e+00 0.000000e+00
4.968354e+00 0.000000e+00 0.000000e+00
5.000000e+00 0.000000e+00 0.000000e+00
0.000000e+00 3.333333e-02 0.000000e+00
3.164557e-02 3.333333e-02 0.000000e+00
6.329114e-02 3.333333e-02 0.000000e+00
9.493671e-02 3.333333e-02 0.000000e+00
1.265823e-01 3.333333e-02 0.000000e+00
1.582278e-01 3.333333e-02 0.000000e+00
1.898734e-01 3.333333e-02 0.000000e+00
2.215190e-01 3.333333e-02 0.000000e+00
2.531646e-01 3.333333e-02 0.000000e+00
2.848101e-01 3.333333e-02 0.000000e+00
3.164557e-01 3.333333e-02 0.000000e+00
3.481013e-01 3.333333e-02 0.000000e+00
3.797468e-01 3.333333e-02 0.000000e+00
4.113924e-01 3.333333e-02 0.000000e+00
4.430380e-01 3.333333e-02 0.000000e+00
4.746835e-01 3.333333e-02 0.000000e+00
5.063291e-01 3.333333e-02 0.000000e+00
5.379747e-01 3.333333e-02 0.000000e+00
5.696203e-01 3.333333e-02 0.000000e+00
6.012658e-01 3.333333e-02 0.000000e+00
6.329114e-01 3.333333e-02 0.000000e+00
6.645570e-01 3.333333e-02 0.000000e+00
6.962025e-01 3.333333e-02 0.000000e+00
7.278481e-01 3.333333e-02 0.000000e+00
7.594937e-01 3.333333e-02 0.000000e+00
7.911392e-01 3.333333e-02 0.000000e+00
8.227848e-01 3.333333e-02 0.000000e+00
8.544304e-01 3.333333e-02 0.000000e+00
8.860759e-01 3.333333e-02 0.000000e+00
9.177215e-01 3.333333e-02 0.000000e+00
9.493671e-01 3.333333e-02 0.000000e+00
9.810127e-01 3.333333e-02 0.000000e+00
1.012658e+00 3.333333e-02 0.000000e+00
1.044304e+00 3.333333e-02 0.000000e+00
1.075949e+00 3.333333e-02 0.000000e+00
1.107595e+00 3.333333e-02 0.000000e+00
1.139241e+00 3.333333e-02 0.000000e+00
1.170886e+00 3.333333e-02 0.000000e+00
1.202532e+00 3.333333e-02 0.000000e+00
1.234177e+00 3.333333e-02 0.000000e+00
1.265823e+00 3.333333e-02 0.000000e+00
1.297468e+00 3.333333e-02 0.000000e+00
1.329114e+00 3.333333e-02 0.000000e+00
1.360759e+00 3.333333e-02 0.000000e+00
1.392405e+00 3.333333e-02 0.000000e+00
1.424051e+00 3.333333e-02 0.000000e+00
1.455696e+00 3.333333e-02 0.000000e+00
1.487342e+00 3.333333e-02 0.000000e+00
1.518987e+00 3.333333e-02 0.000000e+00
1.550633e+00 3.333333e-02 0.000000e+00
1.582278e+00 3.333333e-02 0.000000e+00
1.613924e+00 3.333333e-02 0.000000e+00
1.645570e+00 3.333333e-02 0.000000e+00
1.677215e+00 3.333333e-02 0.000000e+00
1.708861e+00 3.333333e-02 0.000000e+00
1.740506e+00 3.333333e-02 0.000000e+00
1.772152e+00 3.333333e-02 0.000000e+00
1.803797e+00 3.333333e-02 0.000000e+00
1.835443e+00 3.333333e-02 0.000000e+00
1.867089e+00 3.333333e-02 0.000000e+00
1.898734e+00 3.333333e-02 0.000000e+00
1.930380e+00 3.333333e-02 0.000000e+00
1.962025e+00 3.333333e-02 0.000000e+00
1.993671e+00 3.333333e-02 0.000000e+00
2.025316e+00 3.333333e-02 0.000000e+00
2.056962e+00 3.333333e-02 0.000000e+00
2.088608e+00 3.333333e-02 0.000000e+00
2.120253e+00 3.333333e-02 0.000000e+00
2.151899e+00 3.333333e-02 0.000000e+00
2.183544e+00 3.333333e-02 0.000000e+00
2.215190e+00 3.333333e-02 0.000000e+00
2.246835e+00 3.333333e-02 0.000000e+00
2.278481e+00 3.333333e-02 0.000000e+00
2.310127e+00 3.333333e-02 0.000000e+00
2.341772e+00 3.333333e-02 0.000000e+00
2.373418e+00 3.333333e-02 0.000000e+00
2.405063e+00 3.333333e-02 0.000000e+00
2.436709e+00 3.333333e-02 0.000000e+00
2.468354e+00 3.333333e-02 0.000000e+00
2.500000e+00 3.333333e-02 0.000000e+00
2.531646e+00 3.333333e-02 0.000000e+00
2.563291e+00 3.333333e-02 0.000000e+00
2.594937e+00 3.333333e-02 0.000000e+00
2.626582e+00 3.333333e-02 0.000000e+00
2.658228e+00 3.333333e-02 0.000000e+00
2.689873e+00 3.333333e-02 0.000000e+00
2.721519e+00 3.333333e-02 0.000000e+00
2.753165e+00 3.333333e-02 0.000000e+00
2.784810e+00 3.333333e-02 0.000000e+00
2.816456e+00 3.333333e-02 0.000000e+00
2.848101e+00 3.333333e-02 0.000000e+00
2.879747e+00 3.333333e-02 0.000000e+00
[...]
<PointData>
<DataArray Name="Velocity" type="Float64" format="ascii" NumberOfComponents="3">
0.000000e+00 0.000000e+00 0
0.000000e+00 0.000000e+00 0
0.000000e+00 0.000000e+00 0
0.000000e+00 0.000000e+00 0
0.000000e+00 0.000000e+00 0
0.000000e+00 0.000000e+00 0
0.000000e+00 0.000000e+00 0
0.000000e+00 0.000000e+00 0
0.000000e+00 0.000000e+00 0
0.000000e+00 0.000000e+00 0
0.000000e+00 0.000000e+00 0
0.000000e+00 0.000000e+00 0
0.000000e+00 0.000000e+00 0
0.000000e+00 0.000000e+00 0
0.000000e+00 0.000000e+00 0
0.000000e+00 0.000000e+00 0
0.000000e+00 0.000000e+00 0
0.000000e+00 0.000000e+00 0
0.000000e+00 0.000000e+00 0
-5.237507e-18 0.000000e+00 0
0.000000e+00 0.000000e+00 0
0.000000e+00 0.000000e+00 0
0.000000e+00 0.000000e+00 0
-3.806404e-17 0.000000e+00 0
0.000000e+00 0.000000e+00 0
0.000000e+00 0.000000e+00 0
0.000000e+00 0.000000e+00 0
1.311051e-17 0.000000e+00 0
0.000000e+00 0.000000e+00 0
0.000000e+00 0.000000e+00 0
0.000000e+00 0.000000e+00 0
2.744563e-17 0.000000e+00 0
0.000000e+00 0.000000e+00 0
0.000000e+00 0.000000e+00 0
0.000000e+00 0.000000e+00 0
0.000000e+00 0.000000e+00 0
0.000000e+00 0.000000e+00 0
0.000000e+00 0.000000e+00 0
2.899593e-18 0.000000e+00 0
0.000000e+00 0.000000e+00 0
0.000000e+00 0.000000e+00 0
0.000000e+00 0.000000e+00 0
0.000000e+00 0.000000e+00 0
0.000000e+00 0.000000e+00 0
0.000000e+00 0.000000e+00 0
0.000000e+00 0.000000e+00 0
1.996634e-18 0.000000e+00 0
0.000000e+00 0.000000e+00 0
0.000000e+00 0.000000e+00 0
0.000000e+00 0.000000e+00 0
0.000000e+00 0.000000e+00 0
0.000000e+00 0.000000e+00 0
0.000000e+00 0.000000e+00 0
0.000000e+00 0.000000e+00 0
-2.010860e-17 0.000000e+00 0
0.000000e+00 0.000000e+00 0
0.000000e+00 0.000000e+00 0
0.000000e+00 0.000000e+00 0
0.000000e+00 0.000000e+00 0
0.000000e+00 0.000000e+00 0
0.000000e+00 0.000000e+00 0
0.000000e+00 0.000000e+00 0
-1.863882e-17 0.000000e+00 0
0.000000e+00 0.000000e+00 0
0.000000e+00 0.000000e+00 0
0.000000e+00 0.000000e+00 0
0.000000e+00 0.000000e+00 0
0.000000e+00 0.000000e+00 0
0.000000e+00 0.000000e+00 0
0.000000e+00 0.000000e+00 0
0.000000e+00 0.000000e+00 0
0.000000e+00 0.000000e+00 0
0.000000e+00 0.000000e+00 0
0.000000e+00 0.000000e+00 0
0.000000e+00 0.000000e+00 0
0.000000e+00 0.000000e+00 0
0.000000e+00 0.000000e+00 0
0.000000e+00 0.000000e+00 0
0.000000e+00 0.000000e+00 0
0.000000e+00 0.000000e+00 0
0.000000e+00 0.000000e+00 0
0.000000e+00 0.000000e+00 0
0.000000e+00 0.000000e+00 0
0.000000e+00 0.000000e+00 0
0.000000e+00 0.000000e+00 0
0.000000e+00 0.000000e+00 0
0.000000e+00 0.000000e+00 0
0.000000e+00 0.000000e+00 0
0.000000e+00 0.000000e+00 0
0.000000e+00 0.000000e+00 0
0.000000e+00 0.000000e+00 0
0.000000e+00 0.000000e+00 0
0.000000e+00 0.000000e+00 0
0.000000e+00 0.000000e+00 0
0.000000e+00 0.000000e+00 0
0.000000e+00 0.000000e+00 0
0.000000e+00 0.000000e+00 0
0.000000e+00 0.000000e+00 0
0.000000e+00 0.000000e+00 0
0.000000e+00 0.000000e+00 0
0.000000e+00 0.000000e+00 0
0.000000e+00 0.000000e+00 0
0.000000e+00 0.000000e+00 0
0.000000e+00 0.000000e+00 0
0.000000e+00 0.000000e+00 0
0.000000e+00 0.000000e+00 0
0.000000e+00 0.000000e+00 0
0.000000e+00 0.000000e+00 0
0.000000e+00 0.000000e+00 0
0.000000e+00 0.000000e+00 0
0.000000e+00 0.000000e+00 0
0.000000e+00 0.000000e+00 0
0.000000e+00 0.000000e+00 0
0.000000e+00 0.000000e+00 0
0.000000e+00 0.000000e+00 0
0.000000e+00 0.000000e+00 0
0.000000e+00 0.000000e+00 0
0.000000e+00 0.000000e+00 0
0.000000e+00 0.000000e+00 0
0.000000e+00 0.000000e+00 0
0.000000e+00 0.000000e+00 0
0.000000e+00 0.000000e+00 0
0.000000e+00 0.000000e+00 0
0.000000e+00 0.000000e+00 0
0.000000e+00 0.000000e+00 0
0.000000e+00 0.000000e+00 0
0.000000e+00 0.000000e+00 0
0.000000e+00 0.000000e+00 0
0.000000e+00 0.000000e+00 0
0.000000e+00 0.000000e+00 0
0.000000e+00 0.000000e+00 0
0.000000e+00 0.000000e+00 0
0.000000e+00 0.000000e+00 0
0.000000e+00 0.000000e+00 0
0.000000e+00 0.000000e+00 0
0.000000e+00 0.000000e+00 0
0.000000e+00 0.000000e+00 0
0.000000e+00 0.000000e+00 0
0.000000e+00 0.000000e+00 0
0.000000e+00 0.000000e+00 0
0.000000e+00 0.000000e+00 0
0.000000e+00 0.000000e+00 0
0.000000e+00 0.000000e+00 0
0.000000e+00 0.000000e+00 0
0.000000e+00 0.000000e+00 0
0.000000e+00 0.000000e+00 0
0.000000e+00 0.000000e+00 0
0.000000e+00 0.000000e+00 0
0.000000e+00 0.000000e+00 0
0.000000e+00 0.000000e+00 0
0.000000e+00 0.000000e+00 0
0.000000e+00 0.000000e+00 0
0.000000e+00 0.000000e+00 0
0.000000e+00 0.000000e+00 0
0.000000e+00 0.000000e+00 0
0.000000e+00 0.000000e+00 0
0.000000e+00 0.000000e+00 0
0.000000e+00 0.000000e+00 0
0.000000e+00 0.000000e+00 0
1.809925e+00 -3.860853e-05 0
1.809925e+00 -4.093706e-05 0
1.809958e+00 -3.535813e-05 0
1.809977e+00 -1.337001e-05 0
1.809972e+00 1.912042e-05 0
1.809932e+00 6.160926e-05 0
1.809847e+00 1.162685e-04 0
1.809703e+00 1.847311e-04 0
1.809486e+00 2.687044e-04 0
1.809182e+00 3.701229e-04 0
1.808771e+00 4.911898e-04 0
1.808236e+00 6.343820e-04 0
1.807552e+00 8.024317e-04 0
1.806697e+00 9.983927e-04 0
1.805640e+00 1.225703e-03 0
1.804351e+00 1.488270e-03 0
1.802793e+00 1.790626e-03 0
1.800927e+00 2.138051e-03 0
1.798708e+00 2.536740e-03 0
1.796082e+00 2.994047e-03 0
1.792990e+00 3.518724e-03 0
1.789365e+00 4.121221e-03 0
1.785125e+00 4.813993e-03 0
1.780178e+00 5.611609e-03 0
1.774417e+00 6.530470e-03 0
1.767715e+00 7.587345e-03 0
1.759931e+00 8.795513e-03 0
1.750912e+00 1.015642e-02 0
1.740504e+00 1.164310e-02 0
1.728594e+00 1.317124e-02 0
1.715181e+00 1.455888e-02 0
1.700498e+00 1.549555e-02 0
1.685187e+00 1.558771e-02 0
1.670366e+00 1.458050e-02 0
1.657271e+00 1.264522e-02 0
1.646537e+00 1.027445e-02 0
1.638208e+00 7.920526e-03 0
1.632003e+00 5.845723e-03 0
1.627532e+00 4.143402e-03 0
1.624415e+00 2.806184e-03 0
1.622328e+00 1.781016e-03 0
1.621016e+00 9.984157e-04 0
1.620287e+00 3.574157e-04 0
1.619997e+00 -2.203440e-04 0
1.620051e+00 -7.052665e-04 0
1.620362e+00 -1.060034e-03 0
1.620856e+00 -1.299056e-03 0
1.621463e+00 -1.438786e-03 0
1.622128e+00 -1.495875e-03 0
1.622806e+00 -1.485886e-03 0
1.623459e+00 -1.422685e-03 0
1.624058e+00 -1.318259e-03 0
1.624581e+00 -1.182752e-03 0
1.625012e+00 -1.024592e-03 0
1.625338e+00 -8.505734e-04 0
1.625553e+00 -6.656584e-04 0
1.625653e+00 -4.726120e-04 0
1.625646e+00 -2.802276e-04 0
1.625545e+00 -1.095982e-04 0
1.625358e+00 1.737923e-05 0
1.625092e+00 1.087316e-04 0
1.624754e+00 1.860981e-04 0
1.624350e+00 2.559109e-04 0
1.623884e+00 3.204592e-04 0
1.623360e+00 3.807250e-04 0
1.622782e+00 4.372177e-04 0
1.622153e+00 4.902626e-04 0
1.621476e+00 5.401085e-04 0
1.620754e+00 5.869593e-04 0
1.619989e+00 6.309776e-04 0
1.619184e+00 6.722899e-04 0
1.618342e+00 7.110040e-04 0
1.617464e+00 7.472325e-04 0
1.616553e+00 7.811051e-04 0
1.615611e+00 8.127628e-04 0
1.614640e+00 8.423379e-04 0
1.613642e+00 8.699369e-04 0
1.612619e+00 8.956390e-04 0
1.611571e+00 9.195104e-04 0
1.610502e+00 9.416227e-04 0
1.609412e+00 9.620641e-04 0
1.608303e+00 9.809365e-04 0
1.607177e+00 9.983425e-04 0
1.606034e+00 1.014373e-03 0
1.604875e+00 1.029098e-03 0
1.603703e+00 1.042572e-03 0
1.602519e+00 1.054845e-03 0
1.601322e+00 1.065968e-03 0
1.600115e+00 1.076001e-03 0
1.598898e+00 1.085012e-03 0
1.597672e+00 1.093067e-03 0
1.596438e+00 1.100224e-03 0
1.595197e+00 1.106528e-03 0
1.593950e+00 1.112018e-03 0
1.592696e+00 1.116729e-03 0
1.591438e+00 1.120703e-03 0
1.590176e+00 1.123983e-03 0
1.588910e+00 1.126611e-03 0
1.587640e+00 1.128621e-03 0
1.586369e+00 1.130042e-03 0
1.585095e+00 1.130901e-03 0
1.583820e+00 1.131226e-03 0
1.582543e+00 1.131048e-03 0
1.581266e+00 1.130397e-03 0
1.579989e+00 1.129301e-03 0
1.578712e+00 1.127781e-03 0
1.577436e+00 1.125854e-03 0
1.576161e+00 1.123536e-03 0
1.574887e+00 1.120846e-03 0
1.573615e+00 1.117804e-03 0
1.572345e+00 1.114428e-03 0
1.571078e+00 1.110739e-03 0
1.569813e+00 1.106748e-03 0
1.568551e+00 1.102467e-03 0
1.567292e+00 1.097906e-03 0
1.566036e+00 1.093074e-03 0
1.564785e+00 1.087981e-03 0
1.563537e+00 1.082639e-03 0
1.562293e+00 1.077057e-03 0
1.561054e+00 1.071246e-03 0
1.559819e+00 1.065214e-03 0
1.558590e+00 1.058966e-03 0
1.557365e+00 1.052508e-03 0
1.556146e+00 1.045843e-03 0
1.554932e+00 1.038975e-03 0
1.553723e+00 1.031906e-03 0
1.552521e+00 1.024640e-03 0
1.551324e+00 1.017181e-03 0
1.550134e+00 1.009530e-03 0
1.548950e+00 1.001691e-03 0
1.547773e+00 9.936645e-04 0
1.546602e+00 9.854522e-04 0
1.545439e+00 9.770532e-04 0
1.544282e+00 9.684667e-04 0
1.543133e+00 9.596907e-04 0
1.541992e+00 9.507239e-04 0
1.540858e+00 9.415647e-04 0
1.539732e+00 9.322113e-04 0
1.538614e+00 9.226615e-04 0
1.537504e+00 9.129117e-04 0
1.536403e+00 9.029565e-04 0
1.535311e+00 8.927887e-04 0
1.534228e+00 8.823979e-04 0
1.533154e+00 8.717690e-04 0
1.532089e+00 8.608812e-04 0
1.531034e+00 8.497046e-04 0
1.529988e+00 8.381953e-04 0
1.528954e+00 8.262905e-04 0
1.527929e+00 8.138962e-04 0
1.526917e+00 8.008699e-04 0
1.525916e+00 7.869938e-04 0
1.524928e+00 7.719196e-04 0
1.523954e+00 7.550663e-04 0
1.522996e+00 7.353892e-04 0
1.522058e+00 7.106230e-04 0
1.521144e+00 6.765250e-04 0
1.520262e+00 5.932731e-04 0
1.519427e+00 6.759855e-04 0
1.519427e+00 8.219033e-04 0
2.848535e+00 -7.649659e-05 0
2.848535e+00 -7.346234e-05 0
2.848564e+00 -5.542519e-05 0
2.848581e+00 -1.490295e-05 0
2.848578e+00 4.714538e-05 0
2.848544e+00 1.320856e-04 0
2.848470e+00 2.420505e-04 0
2.848344e+00 3.798380e-04 0
2.848154e+00 5.487799e-04 0
2.847885e+00 7.527326e-04 0
2.847523e+00 9.960864e-04 0
2.847049e+00 1.283756e-03 0
2.846444e+00 1.621246e-03 0
2.845685e+00 2.014730e-03 0
2.844748e+00 2.471147e-03 0
2.843603e+00 2.998411e-03 0
2.842219e+00 3.605621e-03 0
2.840561e+00 4.303317e-03 0
2.838587e+00 5.103913e-03 0
2.836252e+00 6.022126e-03 0
2.833504e+00 7.075524e-03 0
2.830281e+00 8.285235e-03 0
2.826512e+00 9.676549e-03 0
2.822117e+00 1.127935e-02 0
2.816996e+00 1.312768e-02 0
2.811035e+00 1.525735e-02 0
2.804097e+00 1.769924e-02 0
2.796020e+00 2.046370e-02 0
2.786620e+00 2.350775e-02 0
2.775704e+00 2.667400e-02 0
2.763127e+00 2.959474e-02 0
2.748931e+00 3.159338e-02 0
2.733674e+00 3.173980e-02 0
2.718862e+00 2.940530e-02 0
2.706450e+00 2.509959e-02 0
2.696943e+00 2.007892e-02 0
2.689996e+00 1.530849e-02 0
2.685044e+00 1.124542e-02 0
2.681570e+00 7.993410e-03 0
2.679171e+00 5.482312e-03 0
2.677551e+00 3.580926e-03 0
2.676495e+00 2.150430e-03 0
2.675839e+00 1.072679e-03 0
2.675429e+00 2.485666e-04 0
2.675137e+00 -3.847602e-04 0
2.674923e+00 -8.481543e-04 0
2.674756e+00 -1.159174e-03 0
2.674613e+00 -1.340431e-03 0
2.674478e+00 -1.414271e-03 0
2.674337e+00 -1.401029e-03 0
2.674181e+00 -1.318545e-03 0
2.674001e+00 -1.182147e-03 0
2.673791e+00 -1.004859e-03 0
2.673547e+00 -7.977560e-04 0
2.673266e+00 -5.703623e-04 0
2.672947e+00 -3.312892e-04 0
2.672599e+00 -9.794789e-05 0
2.672227e+00 1.135635e-04 0
2.671828e+00 3.035666e-04 0
2.671392e+00 4.773755e-04 0
2.670901e+00 6.365593e-04 0
2.670351e+00 7.821372e-04 0
2.669746e+00 9.168433e-04 0
2.669088e+00 1.042564e-03 0
2.668379e+00 1.160465e-03 0
2.667623e+00 1.271301e-03 0
2.666821e+00 1.375614e-03 0
2.665977e+00 1.473832e-03 0
2.665092e+00 1.566303e-03 0
2.664170e+00 1.653317e-03 0
2.663211e+00 1.735119e-03 0
2.662219e+00 1.811941e-03 0
2.661195e+00 1.884018e-03 0
2.660141e+00 1.951596e-03 0
2.659059e+00 2.014917e-03 0
2.657950e+00 2.074200e-03 0
2.656817e+00 2.129633e-03 0
2.655660e+00 2.181381e-03 0
2.654482e+00 2.229601e-03 0
2.653283e+00 2.274460e-03 0
2.652065e+00 2.316135e-03 0
2.650829e+00 2.354809e-03 0
2.649576e+00 2.390651e-03 0
2.648308e+00 2.423811e-03 0
2.647026e+00 2.454419e-03 0
2.645730e+00 2.482589e-03 0
2.644422e+00 2.508435e-03 0
2.643102e+00 2.532074e-03 0
2.641772e+00 2.553628e-03 0
2.640431e+00 2.573218e-03 0
2.639082e+00 2.590955e-03 0
2.637724e+00 2.606938e-03 0
2.636359e+00 2.621251e-03 0
2.634987e+00 2.633976e-03 0
2.633609e+00 2.645193e-03 0
2.632225e+00 2.654985e-03 0
2.630836e+00 2.663430e-03 0
2.629442e+00 2.670602e-03 0
2.628045e+00 2.676562e-03 0
2.626644e+00 2.681370e-03 0
2.625240e+00 2.685081e-03 0
2.623833e+00 2.687754e-03 0
2.622424e+00 2.689446e-03 0
2.621013e+00 2.690210e-03 0
2.619601e+00 2.690092e-03 0
2.618187e+00 2.689132e-03 0
2.616773e+00 2.687368e-03 0
2.615359e+00 2.684836e-03 0
2.613944e+00 2.681572e-03 0
2.612530e+00 2.677614e-03 0
2.611116e+00 2.672996e-03 0
2.609703e+00 2.667747e-03 0
2.608291e+00 2.661893e-03 0
2.606880e+00 2.655456e-03 0
2.605471e+00 2.648458e-03 0
2.604064e+00 2.640919e-03 0
2.602659e+00 2.632859e-03 0
2.601256e+00 2.624297e-03 0
2.599855e+00 2.615253e-03 0
2.598457e+00 2.605741e-03 0
2.597062e+00 2.595776e-03 0
2.595670e+00 2.585369e-03 0
2.594281e+00 2.574529e-03 0
2.592896e+00 2.563264e-03 0
2.591514e+00 2.551582e-03 0
2.590136e+00 2.539489e-03 0
2.588762e+00 2.526990e-03 0
2.587392e+00 2.514091e-03 0
2.586027e+00 2.500796e-03 0
2.584666e+00 2.487108e-03 0
2.583310e+00 2.473029e-03 0
2.581959e+00 2.458559e-03 0
2.580612e+00 2.443698e-03 0
2.579271e+00 2.428443e-03 0
2.577936e+00 2.412791e-03 0
2.576606e+00 2.396739e-03 0
2.575281e+00 2.380285e-03 0
2.573963e+00 2.363423e-03 0
2.572651e+00 2.346147e-03 0
2.571345e+00 2.328450e-03 0
2.570046e+00 2.310320e-03 0
2.568754e+00 2.291741e-03 0
2.567468e+00 2.272693e-03 0
2.566190e+00 2.253145e-03 0
2.564919e+00 2.233057e-03 0
2.563655e+00 2.212366e-03 0
2.562400e+00 2.190989e-03 0
2.561153e+00 2.168799e-03 0
2.559914e+00 2.145610e-03 0
2.558684e+00 2.121145e-03 0
2.557464e+00 2.094977e-03 0
2.556254e+00 2.066442e-03 0
2.555056e+00 2.034460e-03 0
2.553870e+00 1.997209e-03 0
2.552698e+00 1.951484e-03 0
2.551541e+00 1.891357e-03 0
2.550401e+00 1.807575e-03 0
2.549243e+00 1.789375e-03 0
2.549243e+00 1.820323e-03 0
3.413476e+00 -1.165710e-04 0
3.413476e+00 -1.100984e-04 0
3.413512e+00 -8.302014e-05 0
3.413539e+00 -2.739850e-05 0
3.413550e+00 5.794184e-05 0
3.413541e+00 1.751361e-04 0
3.413502e+00 3.271373e-04 0
3.413427e+00 5.177906e-04 0
3.413305e+00 7.517303e-04 0
3.413128e+00 1.034337e-03 0
3.412882e+00 1.371719e-03 0
3.412556e+00 1.770747e-03 0
3.412134e+00 2.239114e-03 0
3.411598e+00 2.785395e-03 0
3.410932e+00 3.419239e-03 0
3.410113e+00 4.151586e-03 0
3.409118e+00 4.994910e-03 0
3.407922e+00 5.963685e-03 0
3.406494e+00 7.074892e-03 0
3.404802e+00 8.348635e-03 0
3.402808e+00 9.809074e-03 0
3.400470e+00 1.148545e-02 0
3.397738e+00 1.341326e-02 0
3.394554e+00 1.563543e-02 0
3.390846e+00 1.820301e-02 0
3.386526e+00 2.117455e-02 0
3.381479e+00 2.461175e-02 0
3.375545e+00 2.856575e-02 0
3.368495e+00 3.304206e-02 0
3.359989e+00 3.791732e-02 0
3.349536e+00 4.276037e-02 0
3.336575e+00 4.651904e-02 0
3.321033e+00 4.726021e-02 0
3.305269e+00 4.325658e-02 0
3.293912e+00 3.573305e-02 0
3.286727e+00 2.760499e-02 0
3.282351e+00 2.045369e-02 0
3.279678e+00 1.472183e-02 0
3.278022e+00 1.033014e-02 0
3.276988e+00 7.039337e-03 0
3.276347e+00 4.600269e-03 0
3.275960e+00 2.801762e-03 0
3.275732e+00 1.480349e-03 0
3.275596e+00 5.186619e-04 0
3.275491e+00 -1.734736e-04 0
3.275383e+00 -6.582487e-04 0
3.275256e+00 -9.719437e-04 0
3.275106e+00 -1.145353e-03 0
3.274931e+00 -1.204833e-03 0
3.274730e+00 -1.172876e-03 0
3.274503e+00 -1.068592e-03 0
3.274251e+00 -9.081286e-04 0
3.273974e+00 -7.050833e-04 0
3.273674e+00 -4.711511e-04 0
3.273352e+00 -2.186834e-04 0
3.273012e+00 3.615870e-05 0
3.272654e+00 2.865764e-04 0
3.272269e+00 5.328494e-04 0
3.271848e+00 7.698214e-04 0
3.271387e+00 9.939728e-04 0
3.270885e+00 1.204495e-03 0
3.270340e+00 1.401664e-03 0
3.269754e+00 1.586613e-03 0
3.269128e+00 1.760485e-03 0
3.268463e+00 1.924210e-03 0
3.267761e+00 2.078521e-03 0
3.267024e+00 2.224020e-03 0
3.266253e+00 2.361212e-03 0
3.265452e+00 2.490523e-03 0
3.264620e+00 2.612325e-03 0
3.263761e+00 2.726953e-03 0
3.262875e+00 2.834734e-03 0
3.261964e+00 2.936002e-03 0
3.261029e+00 3.031087e-03 0
3.260072e+00 3.120303e-03 0
3.259094e+00 3.203934e-03 0
3.258097e+00 3.282231e-03 0
3.257081e+00 3.355430e-03 0
3.256048e+00 3.423768e-03 0
3.254998e+00 3.487489e-03 0
3.253933e+00 3.546839e-03 0
3.252854e+00 3.602057e-03 0
3.251762e+00 3.653361e-03 0
3.250657e+00 3.700949e-03 0
3.249540e+00 3.744997e-03 0
3.248413e+00 3.785673e-03 0
3.247275e+00 3.823142e-03 0
3.246128e+00 3.857575e-03 0
3.244972e+00 3.889139e-03 0
3.243808e+00 3.917994e-03 0
3.242636e+00 3.944285e-03 0
3.241457e+00 3.968140e-03 0
3.240272e+00 3.989680e-03 0
3.239082e+00 4.009022e-03 0
3.237885e+00 4.026282e-03 0
3.236684e+00 4.041572e-03 0
3.235478e+00 4.055000e-03 0
3.234268e+00 4.066658e-03 0
3.233054e+00 4.076634e-03 0
3.231837e+00 4.085009e-03 0
3.230618e+00 4.091865e-03 0
3.229395e+00 4.097284e-03 0
3.228170e+00 4.101342e-03 0
3.226943e+00 4.104107e-03 0
3.225715e+00 4.105642e-03 0
3.224485e+00 4.106001e-03 0
3.223254e+00 4.105237e-03 0
3.222022e+00 4.103406e-03 0
3.220789e+00 4.100557e-03 0
3.219556e+00 4.096742e-03 0
3.218322e+00 4.092002e-03 0
3.217089e+00 4.086378e-03 0
3.215856e+00 4.079903e-03 0
3.214623e+00 4.072610e-03 0
3.213391e+00 4.064529e-03 0
3.212160e+00 4.055690e-03 0
3.210929e+00 4.046121e-03 0
3.209700e+00 4.035847e-03 0
3.208472e+00 4.024891e-03 0
3.207246e+00 4.013275e-03 0
3.206021e+00 4.001015e-03 0
3.204798e+00 3.988128e-03 0
3.203577e+00 3.974626e-03 0
3.202358e+00 3.960521e-03 0
3.201141e+00 3.945823e-03 0
3.199927e+00 3.930540e-03 0
3.198715e+00 3.914680e-03 0
3.197506e+00 3.898251e-03 0
3.196299e+00 3.881255e-03 0
3.195096e+00 3.863698e-03 0
3.193896e+00 3.845579e-03 0
3.192698e+00 3.826901e-03 0
3.191505e+00 3.807659e-03 0
3.190314e+00 3.787852e-03 0
3.189128e+00 3.767476e-03 0
3.187945e+00 3.746527e-03 0
3.186766e+00 3.724999e-03 0
3.185591e+00 3.702885e-03 0
3.184421e+00 3.680178e-03 0
3.183255e+00 3.656865e-03 0
3.182093e+00 3.632932e-03 0
3.180936e+00 3.608356e-03 0
3.179784e+00 3.583111e-03 0
3.178637e+00 3.557157e-03 0
3.177495e+00 3.530441e-03 0
3.176359e+00 3.502887e-03 0
3.175228e+00 3.474385e-03 0
3.174103e+00 3.444778e-03 0
3.172984e+00 3.413836e-03 0
3.171871e+00 3.381219e-03 0
3.170764e+00 3.346423e-03 0
3.169665e+00 3.308690e-03 0
3.168572e+00 3.266876e-03 0
3.167486e+00 3.219253e-03 0
3.166406e+00 3.163306e-03 0
3.165331e+00 3.095850e-03 0
3.164256e+00 3.013822e-03 0
3.163171e+00 2.936023e-03 0
3.163171e+00 2.903218e-03 0
3.724622e+00 -1.618238e-04 0
3.724622e+00 -1.534468e-04 0
3.724666e+00 -1.207427e-04 0
3.724704e+00 -5.524054e-05 0
3.724733e+00 4.503104e-05 0
3.724750e+00 1.828058e-04 0
3.724749e+00 3.618633e-04 0
3.724725e+00 5.869048e-04 0
3.724673e+00 8.635505e-04 0
3.724585e+00 1.198318e-03 0
3.724454e+00 1.598618e-03 0
3.724270e+00 2.072755e-03 0
3.724023e+00 2.629953e-03 0
3.723701e+00 3.280467e-03 0
3.723291e+00 4.035754e-03 0
3.722779e+00 4.908637e-03 0
3.722149e+00 5.913687e-03 0
3.721383e+00 7.067694e-03 0
3.720463e+00 8.390188e-03 0
3.719368e+00 9.904344e-03 0
3.718075e+00 1.163808e-02 0
3.716559e+00 1.362542e-02 0
3.714793e+00 1.590835e-02 0
3.712741e+00 1.853915e-02 0
3.710363e+00 2.158348e-02 0
3.707605e+00 2.512425e-02 0
3.704386e+00 2.926629e-02 0
3.700575e+00 3.413974e-02 0
3.695935e+00 3.989361e-02 0
3.690007e+00 4.664414e-02 0
3.681863e+00 5.425694e-02 0
3.669712e+00 6.161682e-02 0
3.650786e+00 6.471530e-02 0
3.628568e+00 5.797240e-02 0
3.618018e+00 4.463035e-02 0
3.614189e+00 3.225715e-02 0
3.613226e+00 2.273424e-02 0
3.613315e+00 1.580494e-02 0
3.613725e+00 1.082677e-02 0
3.614182e+00 7.246850e-03 0
3.614598e+00 4.663793e-03 0
3.614946e+00 2.797902e-03 0
3.615220e+00 1.455622e-03 0
3.615417e+00 5.022663e-04 0
3.615544e+00 -1.598537e-04 0
3.615598e+00 -6.006505e-04 0
3.615584e+00 -8.679737e-04 0
3.615509e+00 -9.974569e-04 0
3.615381e+00 -1.017134e-03 0
3.615208e+00 -9.497643e-04 0
3.614996e+00 -8.141358e-04 0
3.614750e+00 -6.258495e-04 0
3.614477e+00 -3.974913e-04 0
3.614180e+00 -1.423045e-04 0
3.613862e+00 1.267675e-04 0
3.613524e+00 4.039364e-04 0
3.613159e+00 6.847476e-04 0
3.612767e+00 9.626423e-04 0
3.612348e+00 1.232823e-03 0
3.611900e+00 1.492096e-03 0
3.611422e+00 1.738908e-03 0
3.610915e+00 1.972794e-03 0
3.610376e+00 2.193999e-03 0
3.609808e+00 2.403060e-03 0
3.609212e+00 2.600586e-03 0
3.608588e+00 2.787173e-03 0
3.607937e+00 2.963379e-03 0
3.607262e+00 3.129710e-03 0
3.606563e+00 3.286618e-03 0
3.605841e+00 3.434517e-03 0
3.605098e+00 3.573806e-03 0
3.604336e+00 3.704880e-03 0