<?xml version="1.0"?>
<VTKFile type="StructuredGrid">
<StructuredGrid WholeExtent="0 158 0 30 0 0 ">
<Piece Extent="0 158 0 30 0 0 ">
<Points>
<DataArray type="Float64" format="ascii" NumberOfComponents="3">
0.000000e+00 0.000000e+00 0.000000e+00
3.164557e-02 0.000000e+00 0.000000e+00
6.329114e-02 0.000000e+00 0.000000e+00
9.493671e-02 0.000000e+00 0.000000e+00
1.265823e-01 0.000000e+00 0.000000e+00
1.582278e-01 0.000000e+00 0.000000e+00
1.898734e-01 0.000000e+00 0.000000e+00
2.215190e-01 0.000000e+00 0.000000e+00
2.531646e-01 0.000000e+00 0.000000e+00
2.848101e-01 0.000000e+00 0.000000e+00
3.164557e-01 0.000000e+00 0.000000e+00
3.481013e-01 0.000000e+00 0.000000e+00
3.797468e-01 0.000000e+00 0.000000e+00
4.113924e-01 0.000000e+00 0.000000e+00
4.430380e-01 0.000000e+00 0.000000e+00
4.746835e-01 0.000000e+00 0.000000e+00
5.063291e-01 0.000000e+00 0.000000e+00
5.379747e-01 0.000000e+00 0.000000e+00
5.696203e-01 0.000000e+00 0.000000e+00
6.012658e-01 0.000000e+00 0.000000e+00
6.329114e-01 0.000000e+00 0.000000e+00
6.645570e-01 0.000000e+00 0.000000e+00
6.962025e-01 0.000000e+00 0.000000e+00
7.278481e-01 0.000000e+00 0.000000e+00
7.594937e-01 0.000000e+00 0.000000e+00
7.911392e-01 0.000000e+00 0.000000e+00
8.227848e-01 0.000000e+00 0.000000e+00
8.544304e-01 0.000000e+00 0.000000e+00
8.860759e-01 0.000000e+00 0.000000e+00
9.177215e-01 0.000000e+00 0.000000e+00
9.493671e-01 0.000000e+00 0.000000e+00
9.810127e-01 0.000000e+00 0.000000e+00
1.012658e+00 0.000000e+00 0.000000e+00
1.044304e+00 0.000000e+00 0.000000e+00
1.075949e+00 0.000000e+00 0.000000e+00
1.107595e+00 0.000000e+00 0.000000e+00
1.139241e+00 0.000000e+00 0.000000e+00
1.170886e+00 0.000000e+00 0.000000e+00
1.202532e+00 0.000000e+00 0.000000e+00
1.234177e+00 0.000000e+00 0.000000e+00
1.265823e+00 0.000000e+00 0.000000e+00
1.297468e+00 0.000000e+00 0.000000e+00
1.329114e+00 0.000000e+00 0.000000e+00
1.360759e+00 0.000000e+00 0.000000e+00
1.392405e+00 0.000000e+00 0.000000e+00
1.424051e+00 0.000000e+00 0.000000e+00
1.455696e+00 0.000000e+00 0.000000e+00
1.487342e+00 0.000000e+00 0.000000e+00
1.518987e+00 0.000000e+00 0.000000e+00
1.550633e+00 0.000000e+00 0.000000e+00
1.582278e+00 0.000000e+00 0.000000e+00
1.613924e+00 0.000000e+00 0.000000e+00
1.645570e+00 0.000000e+00 0.000000e+00
1.677215e+00 0.000000e+00 0.000000e+00
1.708861e+00 0.000000e+00 0.000000e+00
1.740506e+00 0.000000e+00 0.000000e+00
1.772152e+00 0.000000e+00 0.000000e+00
1.803797e+00 0.000000e+00 0.000000e+00
1.835443e+00 0.000000e+00 0.000000e+00
1.867089e+00 0.000000e+00 0.000000e+00
1.898734e+00 0.000000e+00 0.000000e+00
1.930380e+00 0.000000e+00 0.000000e+00
1.962025e+00 0.000000e+00 0.000000e+00
1.993671e+00 0.000000e+00 0.000000e+00
2.025316e+00 0.000000e+00 0.000000e+00
2.056962e+00 0.000000e+00 0.000000e+00
2.088608e+00 0.000000e+00 0.000000e+00
2.120253e+00 0.000000e+00 0.000000e+00
2.151899e+00 0.000000e+00 0.000000e+00
2.183544e+00 0.000000e+00 0.000000e+00
2.215190e+00 0.000000e+00 0.000000e+00
2.246835e+00 0.000000e+00 0.000000e+00
2.278481e+00 0.000000e+00 0.000000e+00
2.310127e+00 0.000000e+00 0.000000e+00
2.341772e+00 0.000000e+00 0.000000e+00
2.373418e+00 0.000000e+00 0.000000e+00
2.405063e+00 0.000000e+00 0.000000e+00
2.436709e+00 0.000000e+00 0.000000e+00
2.468354e+00 0.000000e+00 0.000000e+00
2.500000e+00 0.000000e+00 0.000000e+00
2.531646e+00 0.000000e+00 0.000000e+00
2.563291e+00 0.000000e+00 0.000000e+00
2.594937e+00 0.000000e+00 0.000000e+00
2.626582e+00 0.000000e+00 0.000000e+00
2.658228e+00 0.000000e+00 0.000000e+00
2.689873e+00 0.000000e+00 0.000000e+00
2.721519e+00 0.000000e+00 0.000000e+00
2.753165e+00 0.000000e+00 0.000000e+00
2.784810e+00 0.000000e+00 0.000000e+00
2.816456e+00 0.000000e+00 0.000000e+00
2.848101e+00 0.000000e+00 0.000000e+00
2.879747e+00 0.000000e+00 0.000000e+00
2.911392e+00 0.000000e+00 0.000000e+00
2.943038e+00 0.000000e+00 0.000000e+00
2.974684e+00 0.000000e+00 0.000000e+00
3.006329e+00 0.000000e+00 0.000000e+00
3.037975e+00 0.000000e+00 0.000000e+00
3.069620e+00 0.000000e+00 0.000000e+00
3.101266e+00 0.000000e+00 0.000000e+00
3.132911e+00 0.000000e+00 0.000000e+00
3.164557e+00 0.000000e+00 0.000000e+00
3.196203e+00 0.000000e+00 0.000000e+00
3.227848e+00 0.000000e+00 0.000000e+00
3.259494e+00 0.000000e+00 0.000000e+00
3.291139e+00 0.000000e+00 0.000000e+00
3.322785e+00 0.000000e+00 0.000000e+00
3.354430e+00 0.000000e+00 0.000000e+00
3.386076e+00 0.000000e+00 0.000000e+00
3.417722e+00 0.000000e+00 0.000000e+00
3.449367e+00 0.000000e+00 0.000000e+00
3.481013e+00 0.000000e+00 0.000000e+00
3.512658e+00 0.000000e+00 0.000000e+00
3.544304e+00 0.000000e+00 0.000000e+00
3.575949e+00 0.000000e+00 0.000000e+00
3.607595e+00 0.000000e+00 0.000000e+00
3.639241e+00 0.000000e+00 0.000000e+00
3.670886e+00 0.000000e+00 0.000000e+00
3.702532e+00 0.000000e+00 0.000000e+00
3.734177e+00 0.000000e+00 0.000000e+00
3.765823e+00 0.000000e+00 0.000000e+00
3.797468e+00 0.000000e+00 0.000000e+00
3.829114e+00 0.000000e+00 0.000000e+00
3.860759e+00 0.000000e+00 0.000000e+00
3.892405e+00 0.000000e+00 0.000000e+00
3.924051e+00 0.000000e+00 0.000000e+00
3.955696e+00 0.000000e+00 0.000000e+00
3.987342e+00 0.000000e+00 0.000000e+00
4.018987e+00 0.000000e+00 0.000000e+00
4.050633e+00 0.000000e+00 0.000000e+00
4.082278e+00 0.000000e+00 0.000000e+00
4.113924e+00 0.000000e+00 0.000000e+00
4.145570e+00 0.000000e+00 0.000000e+00
4.177215e+00 0.000000e+00 0.000000e+00
4.208861e+00 0.000000e+00 0.000000e+00
4.240506e+00 0.000000e+00 0.000000e+00
4.272152e+00 0.000000e+00 0.000000e+00
4.303797e+00 0.000000e+00 0.000000e+00
4.335443e+00 0.000000e+00 0.000000e+00
4.367089e+00 0.000000e+00 0.000000e+00
4.398734e+00 0.000000e+00 0.000000e+00
4.430380e+00 0.000000e+00 0.000000e+00
4.462025e+00 0.000000e+00 0.000000e+00
4.493671e+00 0.000000e+00 0.000000e+00
4.525316e+00 0.000000e+00 0.000000e+00
4.556962e+00 0.000000e+00 0.000000e+00
4.588608e+00 0.000000e+00 0.000000e+00
4.620253e+00 0.000000e+00 0.000000e+00
4.651899e+00 0.000000e+00 0.000000e+00
4.683544e+00 0.000000e+00 0.000000e+00
4.715190e+00 0.000000e+00 0.000000e+00
4.746835e+00 0.000000e+00 0.000000e+00
4.778481e+00 0.000000e+00 0.000000e+00
4.810127e+00 0.000000e+00 0.000000e+00
4.841772e+00 0.000000e+00 0.000000e+00
4.873418e+00 0.000000e+00 0.000000e+00
4.905063e+00 0.000000e+00 0.000000e+00
4.936709e+00 0.000000e+00 0.000000e+00
4.968354e+00 0.000000e+00 0.000000e+00
5.000000e+00 0.000000e+00 0.000000e+00
0.000000e+00 3.333333e-02 0.000000e+00
3.164557e-02 3.333333e-02 0.000000e+00
6.329114e-02 3.333333e-02 0.000000e+00
9.493671e-02 3.333333e-02 0.000000e+00
1.265823e-01 3.333333e-02 0.000000e+00
1.582278e-01 3.333333e-02 0.000000e+00
1.898734e-01 3.333333e-02 0.000000e+00
2.215190e-01 3.333333e-02 0.000000e+00
2.531646e-01 3.333333e-02 0.000000e+00
2.848101e-01 3.333333e-02 0.000000e+00
3.164557e-01 3.333333e-02 0.000000e+00
3.481013e-01 3.333333e-02 0.000000e+00
3.797468e-01 3.333333e-02 0.000000e+00
4.113924e-01 3.333333e-02 0.000000e+00
4.430380e-01 3.333333e-02 0.000000e+00
4.746835e-01 3.333333e-02 0.000000e+00
5.063291e-01 3.333333e-02 0.000000e+00
5.379747e-01 3.333333e-02 0.000000e+00
5.696203e-01 3.333333e-02 0.000000e+00
6.012658e-01 3.333333e-02 0.000000e+00
6.329114e-01 3.333333e-02 0.000000e+00
6.645570e-01 3.333333e-02 0.000000e+00
6.962025e-01 3.333333e-02 0.000000e+00
7.278481e-01 3.333333e-02 0.000000e+00
7.594937e-01 3.333333e-02 0.000000e+00
7.911392e-01 3.333333e-02 0.000000e+00
8.227848e-01 3.333333e-02 0.000000e+00
8.544304e-01 3.333333e-02 0.000000e+00
8.860759e-01 3.333333e-02 0.000000e+00
9.177215e-01 3.333333e-02 0.000000e+00
9.493671e-01 3.333333e-02 0.000000e+00
9.810127e-01 3.333333e-02 0.000000e+00
1.012658e+00 3.333333e-02 0.000000e+00
1.044304e+00 3.333333e-02 0.000000e+00
1.075949e+00 3.333333e-02 0.000000e+00
1.107595e+00 3.333333e-02 0.000000e+00
1.139241e+00 3.333333e-02 0.000000e+00
1.170886e+00 3.333333e-02 0.000000e+00
1.202532e+00 3.333333e-02 0.000000e+00
1.234177e+00 3.333333e-02 0.000000e+00
1.265823e+00 3.333333e-02 0.000000e+00
1.297468e+00 3.333333e-02 0.000000e+00
1.329114e+00 3.333333e-02 0.000000e+00
1.360759e+00 3.333333e-02 0.000000e+00
1.392405e+00 3.333333e-02 0.000000e+00
1.424051e+00 3.333333e-02 0.000000e+00
1.455696e+00 3.333333e-02 0.000000e+00
1.487342e+00 3.333333e-02 0.000000e+00
1.518987e+00 3.333333e-02 0.000000e+00
1.550633e+00 3.333333e-02 0.000000e+00
1.582278e+00 3.333333e-02 0.000000e+00
1.613924e+00 3.333333e-02 0.000000e+00
1.645570e+00 3.333333e-02 0.000000e+00
1.677215e+00 3.333333e-02 0.000000e+00
1.708861e+00 3.333333e-02 0.000000e+00
1.740506e+00 3.333333e-02 0.000000e+00
1.772152e+00 3.333333e-02 0.000000e+00
1.803797e+00 3.333333e-02 0.000000e+00
1.835443e+00 3.333333e-02 0.000000e+00
1.867089e+00 3.333333e-02 0.000000e+00
1.898734e+00 3.333333e-02 0.000000e+00
1.930380e+00 3.333333e-02 0.000000e+00
1.962025e+00 3.333333e-02 0.000000e+00
1.993671e+00 3.333333e-02 0.000000e+00
2.025316e+00 3.333333e-02 0.000000e+00
2.056962e+00 3.333333e-02 0.000000e+00
2.088608e+00 3.333333e-02 0.000000e+00
2.120253e+00 3.333333e-02 0.000000e+00
2.151899e+00 3.333333e-02 0.000000e+00
2.183544e+00 3.333333e-02 0.000000e+00
2.215190e+00 3.333333e-02 0.000000e+00
2.246835e+00 3.333333e-02 0.000000e+00
2.278481e+00 3.333333e-02 0.000000e+00
2.310127e+00 3.333333e-02 0.000000e+00
2.341772e+00 3.333333e-02 0.000000e+00
2.373418e+00 3.333333e-02 0.000000e+00
2.405063e+00 3.333333e-02 0.000000e+00
2.436709e+00 3.333333e-02 0.000000e+00
2.468354e+00 3.333333e-02 0.000000e+00
2.500000e+00 3.333333e-02 0.000000e+00
2.531646e+00 3.333333e-02 0.000000e+00
2.563291e+00 3.333333e-02 0.000000e+00
2.594937e+00 3.333333e-02 0.000000e+00
2.626582e+00 3.333333e-02 0.000000e+00
2.658228e+00 3.333333e-02 0.000000e+00
2.689873e+00 3.333333e-02 0.000000e+00
2.721519e+00 3.333333e-02 0.000000e+00
2.753165e+00 3.333333e-02 0.000000e+00
2.784810e+00 3.333333e-02 0.000000e+00
2.816456e+00 3.333333e-02 0.000000e+00
2.848101e+00 3.333333e-02 0.000000e+00
2.879747e+00 3.333333e-02 0.000000e+00
[...]
<PointData>
<DataArray Name="Velocity" type="Float64" format="ascii" NumberOfComponents="3">
0.000000e+00 0.000000e+00 0
0.000000e+00 0.000000e+00 0
0.000000e+00 0.000000e+00 0
0.000000e+00 0.000000e+00 0
0.000000e+00 0.000000e+00 0
0.000000e+00 0.000000e+00 0
0.000000e+00 0.000000e+00 0
0.000000e+00 0.000000e+00 0
0.000000e+00 0.000000e+00 0
0.000000e+00 0.000000e+00 0
0.000000e+00 0.000000e+00 0
0.000000e+00 0.000000e+00 0
0.000000e+00 0.000000e+00 0
0.000000e+00 0.000000e+00 0
0.000000e+00 0.000000e+00 0
0.000000e+00 0.000000e+00 0
0.000000e+00 0.000000e+00 0
0.000000e+00 0.000000e+00 0
0.000000e+00 0.000000e+00 0
1.255211e-17 0.000000e+00 0
0.000000e+00 0.000000e+00 0
0.000000e+00 0.000000e+00 0
0.000000e+00 0.000000e+00 0
-1.665258e-17 0.000000e+00 0
0.000000e+00 0.000000e+00 0
0.000000e+00 0.000000e+00 0
0.000000e+00 0.000000e+00 0
4.161834e-17 0.000000e+00 0
0.000000e+00 0.000000e+00 0
0.000000e+00 0.000000e+00 0
0.000000e+00 0.000000e+00 0
-4.315546e-17 0.000000e+00 0
0.000000e+00 0.000000e+00 0
0.000000e+00 0.000000e+00 0
0.000000e+00 0.000000e+00 0
0.000000e+00 0.000000e+00 0
0.000000e+00 0.000000e+00 0
0.000000e+00 0.000000e+00 0
5.358145e-17 0.000000e+00 0
0.000000e+00 0.000000e+00 0
0.000000e+00 0.000000e+00 0
0.000000e+00 0.000000e+00 0
0.000000e+00 0.000000e+00 0
0.000000e+00 0.000000e+00 0
0.000000e+00 0.000000e+00 0
0.000000e+00 0.000000e+00 0
4.690708e-17 0.000000e+00 0
0.000000e+00 0.000000e+00 0
0.000000e+00 0.000000e+00 0
0.000000e+00 0.000000e+00 0
0.000000e+00 0.000000e+00 0
0.000000e+00 0.000000e+00 0
0.000000e+00 0.000000e+00 0
0.000000e+00 0.000000e+00 0
-4.008075e-17 0.000000e+00 0
0.000000e+00 0.000000e+00 0
0.000000e+00 0.000000e+00 0
0.000000e+00 0.000000e+00 0
0.000000e+00 0.000000e+00 0
0.000000e+00 0.000000e+00 0
0.000000e+00 0.000000e+00 0
0.000000e+00 0.000000e+00 0
-4.030198e-17 0.000000e+00 0
0.000000e+00 0.000000e+00 0
0.000000e+00 0.000000e+00 0
0.000000e+00 0.000000e+00 0
0.000000e+00 0.000000e+00 0
0.000000e+00 0.000000e+00 0
0.000000e+00 0.000000e+00 0
0.000000e+00 0.000000e+00 0
0.000000e+00 0.000000e+00 0
0.000000e+00 0.000000e+00 0
0.000000e+00 0.000000e+00 0
0.000000e+00 0.000000e+00 0
0.000000e+00 0.000000e+00 0
0.000000e+00 0.000000e+00 0
0.000000e+00 0.000000e+00 0
0.000000e+00 0.000000e+00 0
0.000000e+00 0.000000e+00 0
0.000000e+00 0.000000e+00 0
0.000000e+00 0.000000e+00 0
0.000000e+00 0.000000e+00 0
0.000000e+00 0.000000e+00 0
0.000000e+00 0.000000e+00 0
0.000000e+00 0.000000e+00 0
0.000000e+00 0.000000e+00 0
0.000000e+00 0.000000e+00 0
0.000000e+00 0.000000e+00 0
0.000000e+00 0.000000e+00 0
0.000000e+00 0.000000e+00 0
0.000000e+00 0.000000e+00 0
0.000000e+00 0.000000e+00 0
0.000000e+00 0.000000e+00 0
0.000000e+00 0.000000e+00 0
0.000000e+00 0.000000e+00 0
0.000000e+00 0.000000e+00 0
0.000000e+00 0.000000e+00 0
0.000000e+00 0.000000e+00 0
0.000000e+00 0.000000e+00 0
0.000000e+00 0.000000e+00 0
0.000000e+00 0.000000e+00 0
0.000000e+00 0.000000e+00 0
0.000000e+00 0.000000e+00 0
0.000000e+00 0.000000e+00 0
0.000000e+00 0.000000e+00 0
0.000000e+00 0.000000e+00 0
0.000000e+00 0.000000e+00 0
0.000000e+00 0.000000e+00 0
0.000000e+00 0.000000e+00 0
0.000000e+00 0.000000e+00 0
0.000000e+00 0.000000e+00 0
0.000000e+00 0.000000e+00 0
0.000000e+00 0.000000e+00 0
0.000000e+00 0.000000e+00 0
0.000000e+00 0.000000e+00 0
0.000000e+00 0.000000e+00 0
0.000000e+00 0.000000e+00 0
0.000000e+00 0.000000e+00 0
0.000000e+00 0.000000e+00 0
0.000000e+00 0.000000e+00 0
0.000000e+00 0.000000e+00 0
0.000000e+00 0.000000e+00 0
0.000000e+00 0.000000e+00 0
0.000000e+00 0.000000e+00 0
0.000000e+00 0.000000e+00 0
0.000000e+00 0.000000e+00 0
0.000000e+00 0.000000e+00 0
0.000000e+00 0.000000e+00 0
0.000000e+00 0.000000e+00 0
0.000000e+00 0.000000e+00 0
0.000000e+00 0.000000e+00 0
0.000000e+00 0.000000e+00 0
0.000000e+00 0.000000e+00 0
0.000000e+00 0.000000e+00 0
0.000000e+00 0.000000e+00 0
0.000000e+00 0.000000e+00 0
0.000000e+00 0.000000e+00 0
0.000000e+00 0.000000e+00 0
0.000000e+00 0.000000e+00 0
0.000000e+00 0.000000e+00 0
0.000000e+00 0.000000e+00 0
0.000000e+00 0.000000e+00 0
0.000000e+00 0.000000e+00 0
0.000000e+00 0.000000e+00 0
0.000000e+00 0.000000e+00 0
0.000000e+00 0.000000e+00 0
0.000000e+00 0.000000e+00 0
0.000000e+00 0.000000e+00 0
0.000000e+00 0.000000e+00 0
0.000000e+00 0.000000e+00 0
0.000000e+00 0.000000e+00 0
0.000000e+00 0.000000e+00 0
0.000000e+00 0.000000e+00 0
0.000000e+00 0.000000e+00 0
0.000000e+00 0.000000e+00 0
0.000000e+00 0.000000e+00 0
0.000000e+00 0.000000e+00 0
0.000000e+00 0.000000e+00 0
0.000000e+00 0.000000e+00 0
1.962599e+00 -2.448479e-05 0
1.962599e+00 -2.502706e-05 0
1.962619e+00 -1.812229e-05 0
1.962626e+00 7.671457e-07 0
1.962611e+00 2.852825e-05 0
1.962564e+00 6.661197e-05 0
1.962476e+00 1.161548e-04 0
1.962334e+00 1.783718e-04 0
1.962127e+00 2.546601e-04 0
1.961839e+00 3.466277e-04 0
1.961456e+00 4.561268e-04 0
1.960959e+00 5.852648e-04 0
1.960329e+00 7.364025e-04 0
1.959544e+00 9.121906e-04 0
1.958579e+00 1.115611e-03 0
1.957406e+00 1.350030e-03 0
1.955993e+00 1.619308e-03 0
1.954306e+00 1.927934e-03 0
1.952305e+00 2.281165e-03 0
1.949944e+00 2.685223e-03 0
1.947172e+00 3.147540e-03 0
1.943929e+00 3.677016e-03 0
1.940147e+00 4.284264e-03 0
1.935746e+00 4.981742e-03 0
1.930633e+00 5.783471e-03 0
1.924699e+00 6.703812e-03 0
1.917825e+00 7.754259e-03 0
1.909876e+00 8.936253e-03 0
1.900723e+00 1.022696e-02 0
1.890266e+00 1.155429e-02 0
1.878504e+00 1.276158e-02 0
1.865639e+00 1.358007e-02 0
1.852224e+00 1.366705e-02 0
1.839231e+00 1.279897e-02 0
1.827735e+00 1.112334e-02 0
1.818287e+00 9.067908e-03 0
1.810927e+00 7.025718e-03 0
1.805411e+00 5.224722e-03 0
1.801401e+00 3.746370e-03 0
1.798568e+00 2.585046e-03 0
1.796631e+00 1.696470e-03 0
1.795365e+00 1.024726e-03 0
1.794601e+00 5.114804e-04 0
1.794216e+00 5.730528e-05 0
1.794112e+00 -3.499142e-04 0
1.794232e+00 -6.555883e-04 0
1.794512e+00 -8.684340e-04 0
1.794897e+00 -1.000372e-03 0
1.795340e+00 -1.064072e-03 0
1.795802e+00 -1.071656e-03 0
1.796252e+00 -1.034105e-03 0
1.796665e+00 -9.610470e-04 0
1.797022e+00 -8.607162e-04 0
1.797307e+00 -7.399383e-04 0
1.797512e+00 -6.038970e-04 0
1.797627e+00 -4.564875e-04 0
1.797653e+00 -3.010079e-04 0
1.797601e+00 -1.512445e-04 0
1.797477e+00 -3.116039e-05 0
1.797286e+00 5.543033e-05 0
1.797033e+00 1.241333e-04 0
1.796722e+00 1.849434e-04 0
1.796359e+00 2.409517e-04 0
1.795945e+00 2.933180e-04 0
1.795484e+00 3.425814e-04 0
1.794978e+00 3.890412e-04 0
1.794431e+00 4.328836e-04 0
1.793843e+00 4.742346e-04 0
1.793218e+00 5.131915e-04 0
1.792558e+00 5.498462e-04 0
1.791864e+00 5.842970e-04 0
1.791139e+00 6.166490e-04 0
1.790384e+00 6.470045e-04 0
1.789601e+00 6.754535e-04 0
1.788793e+00 7.020703e-04 0
1.787960e+00 7.269216e-04 0
1.787104e+00 7.500787e-04 0
1.786227e+00 7.716240e-04 0
1.785330e+00 7.916474e-04 0
1.784415e+00 8.102339e-04 0
1.783482e+00 8.274541e-04 0
1.782534e+00 8.433637e-04 0
1.781570e+00 8.580139e-04 0
1.780593e+00 8.714620e-04 0
1.779604e+00 8.837744e-04 0
1.778603e+00 8.950205e-04 0
1.777591e+00 9.052623e-04 0
1.776569e+00 9.145501e-04 0
1.775539e+00 9.229251e-04 0
1.774500e+00 9.304277e-04 0
1.773455e+00 9.371023e-04 0
1.772403e+00 9.429969e-04 0
1.771345e+00 9.481582e-04 0
1.770281e+00 9.526271e-04 0
1.769214e+00 9.564378e-04 0
1.768142e+00 9.596204e-04 0
1.767067e+00 9.622053e-04 0
1.765989e+00 9.642248e-04 0
1.764909e+00 9.657121e-04 0
1.763827e+00 9.666984e-04 0
1.762743e+00 9.672105e-04 0
1.761659e+00 9.672709e-04 0
1.760574e+00 9.668994e-04 0
1.759489e+00 9.661169e-04 0
1.758404e+00 9.649455e-04 0
1.757319e+00 9.634084e-04 0
1.756236e+00 9.615268e-04 0
1.755153e+00 9.593182e-04 0
1.754073e+00 9.567964e-04 0
1.752994e+00 9.539735e-04 0
1.751917e+00 9.508624e-04 0
1.750842e+00 9.474772e-04 0
1.749770e+00 9.438324e-04 0
1.748701e+00 9.399413e-04 0
1.747635e+00 9.358159e-04 0
1.746572e+00 9.314660e-04 0
1.745513e+00 9.269002e-04 0
1.744457e+00 9.221259e-04 0
1.743405e+00 9.171491e-04 0
1.742358e+00 9.119753e-04 0
1.741314e+00 9.066103e-04 0
1.740275e+00 9.010608e-04 0
1.739241e+00 8.953339e-04 0
1.738211e+00 8.894360e-04 0
1.737187e+00 8.833714e-04 0
1.736167e+00 8.771426e-04 0
1.735153e+00 8.707513e-04 0
1.734144e+00 8.641992e-04 0
1.733141e+00 8.574887e-04 0
1.732144e+00 8.506224e-04 0
1.731152e+00 8.436025e-04 0
1.730167e+00 8.364303e-04 0
1.729188e+00 8.291064e-04 0
1.728215e+00 8.216309e-04 0
1.727248e+00 8.140035e-04 0
1.726289e+00 8.062241e-04 0
1.725336e+00 7.982922e-04 0
1.724390e+00 7.902067e-04 0
1.723451e+00 7.819661e-04 0
1.722519e+00 7.735678e-04 0
1.721595e+00 7.650082e-04 0
1.720679e+00 7.562816e-04 0
1.719770e+00 7.473806e-04 0
1.718869e+00 7.382942e-04 0
1.717976e+00 7.290061e-04 0
1.717092e+00 7.194925e-04 0
1.716216e+00 7.097179e-04 0
1.715349e+00 6.996299e-04 0
1.714491e+00 6.891493e-04 0
1.713643e+00 6.781562e-04 0
1.712805e+00 6.664642e-04 0
1.711978e+00 6.537757e-04 0
1.711163e+00 6.395909e-04 0
1.710361e+00 6.230088e-04 0
1.709576e+00 6.020730e-04 0
1.708812e+00 5.731117e-04 0
1.708075e+00 5.022344e-04 0
1.707379e+00 5.676853e-04 0
1.707379e+00 6.869516e-04 0
3.153370e+00 -4.894918e-05 0
3.153370e+00 -4.538546e-05 0
3.153388e+00 -2.821451e-05 0
3.153394e+00 8.493418e-06 0
3.153381e+00 6.476024e-05 0
3.153340e+00 1.420221e-04 0
3.153260e+00 2.422262e-04 0
3.153133e+00 3.677556e-04 0
3.152946e+00 5.214300e-04 0
3.152688e+00 7.065302e-04 0
3.152344e+00 9.268143e-04 0
3.151898e+00 1.186521e-03 0
3.151332e+00 1.490406e-03 0
3.150626e+00 1.843797e-03 0
3.149758e+00 2.252672e-03 0
3.148703e+00 2.723803e-03 0
3.147433e+00 3.264952e-03 0
3.145916e+00 3.885112e-03 0
3.144116e+00 4.594826e-03 0
3.141994e+00 5.406605e-03 0
3.139502e+00 6.335415e-03 0
3.136589e+00 7.399226e-03 0
3.133192e+00 8.619588e-03 0
3.129240e+00 1.002198e-02 0
3.124649e+00 1.163544e-02 0
3.119319e+00 1.349060e-02 0
3.113131e+00 1.561400e-02 0
3.105947e+00 1.801474e-02 0
3.097609e+00 2.065631e-02 0
3.087951e+00 2.340384e-02 0
3.076848e+00 2.594053e-02 0
3.064341e+00 2.768068e-02 0
3.050917e+00 2.781533e-02 0
3.037887e+00 2.579531e-02 0
3.026948e+00 2.206161e-02 0
3.018541e+00 1.770488e-02 0
3.012367e+00 1.356322e-02 0
3.007936e+00 1.003387e-02 0
3.004798e+00 7.207612e-03 0
3.002603e+00 5.024887e-03 0
3.001093e+00 3.373931e-03 0
3.000080e+00 2.137774e-03 0
2.999425e+00 1.210734e-03 0
2.999021e+00 5.157801e-04 0
2.998735e+00 -1.661132e-05 0
2.998520e+00 -4.214352e-04 0
2.998350e+00 -7.006283e-04 0
2.998204e+00 -8.720139e-04 0
2.998067e+00 -9.532976e-04 0
2.997928e+00 -9.608142e-04 0
2.997777e+00 -9.090752e-04 0
2.997606e+00 -8.107027e-04 0
2.997411e+00 -6.765590e-04 0
2.997188e+00 -5.159500e-04 0
2.996933e+00 -3.363687e-04 0
2.996653e+00 -1.493543e-04 0
2.996352e+00 2.666424e-05 0
2.996031e+00 1.854844e-04 0
2.995685e+00 3.323930e-04 0
2.995299e+00 4.684625e-04 0
2.994866e+00 5.938903e-04 0
2.994385e+00 7.101867e-04 0
2.993857e+00 8.190022e-04 0
2.993286e+00 9.214040e-04 0
2.992673e+00 1.018054e-03 0
2.992020e+00 1.109380e-03 0
2.991330e+00 1.195682e-03 0
2.990604e+00 1.277183e-03 0
2.989845e+00 1.354080e-03 0
2.989053e+00 1.426558e-03 0
2.988232e+00 1.494806e-03 0
2.987382e+00 1.559013e-03 0
2.986506e+00 1.619357e-03 0
2.985604e+00 1.676000e-03 0
2.984679e+00 1.729091e-03 0
2.983731e+00 1.778775e-03 0
2.982763e+00 1.825204e-03 0
2.981775e+00 1.868536e-03 0
2.980768e+00 1.908930e-03 0
2.979745e+00 1.946532e-03 0
2.978706e+00 1.981470e-03 0
2.977652e+00 2.013861e-03 0
2.976583e+00 2.043821e-03 0
2.975502e+00 2.071472e-03 0
2.974409e+00 2.096938e-03 0
2.973305e+00 2.120339e-03 0
2.972191e+00 2.141780e-03 0
2.971067e+00 2.161358e-03 0
2.969934e+00 2.179159e-03 0
2.968794e+00 2.195273e-03 0
2.967646e+00 2.209788e-03 0
2.966491e+00 2.222794e-03 0
2.965331e+00 2.234370e-03 0
2.964164e+00 2.244591e-03 0
2.962993e+00 2.253525e-03 0
2.961818e+00 2.261235e-03 0
2.960638e+00 2.267784e-03 0
2.959456e+00 2.273234e-03 0
2.958270e+00 2.277646e-03 0
2.957081e+00 2.281073e-03 0
2.955891e+00 2.283567e-03 0
2.954698e+00 2.285171e-03 0
2.953504e+00 2.285929e-03 0
2.952309e+00 2.285884e-03 0
2.951114e+00 2.285078e-03 0
2.949918e+00 2.283552e-03 0
2.948721e+00 2.281343e-03 0
2.947525e+00 2.278481e-03 0
2.946330e+00 2.274996e-03 0
2.945135e+00 2.270914e-03 0
2.943941e+00 2.266264e-03 0
2.942748e+00 2.261071e-03 0
2.941556e+00 2.255362e-03 0
2.940366e+00 2.249161e-03 0
2.939178e+00 2.242487e-03 0
2.937992e+00 2.235359e-03 0
2.936808e+00 2.227794e-03 0
2.935627e+00 2.219806e-03 0
2.934448e+00 2.211408e-03 0
2.933271e+00 2.202612e-03 0
2.932098e+00 2.193432e-03 0
2.930928e+00 2.183877e-03 0
2.929761e+00 2.173962e-03 0
2.928598e+00 2.163694e-03 0
2.927438e+00 2.153081e-03 0
2.926281e+00 2.142128e-03 0
2.925129e+00 2.130839e-03 0
2.923981e+00 2.119219e-03 0
2.922836e+00 2.107272e-03 0
2.921697e+00 2.095002e-03 0
2.920561e+00 2.082412e-03 0
2.919430e+00 2.069504e-03 0
2.918304e+00 2.056278e-03 0
2.917183e+00 2.042735e-03 0
2.916067e+00 2.028874e-03 0
2.914956e+00 2.014695e-03 0
2.913851e+00 2.000195e-03 0
2.912750e+00 1.985373e-03 0
2.911656e+00 1.970224e-03 0
2.910567e+00 1.954743e-03 0
2.909484e+00 1.938922e-03 0
2.908408e+00 1.922751e-03 0
2.907337e+00 1.906214e-03 0
2.906273e+00 1.889288e-03 0
2.905216e+00 1.871942e-03 0
2.904165e+00 1.854126e-03 0
2.903121e+00 1.835771e-03 0
2.902085e+00 1.816773e-03 0
2.901056e+00 1.796975e-03 0
2.900035e+00 1.776141e-03 0
2.899023e+00 1.753911e-03 0
2.898019e+00 1.729713e-03 0
2.897025e+00 1.702621e-03 0
2.896042e+00 1.671055e-03 0
2.895070e+00 1.632230e-03 0
2.894113e+00 1.580952e-03 0
2.893169e+00 1.508868e-03 0
2.892211e+00 1.491111e-03 0
2.892211e+00 1.515834e-03 0
3.840027e+00 -7.577006e-05 0
3.840027e+00 -6.938552e-05 0
3.840051e+00 -4.381366e-05 0
3.840066e+00 7.643228e-06 0
3.840066e+00 8.623672e-05 0
3.840045e+00 1.940901e-04 0
3.839997e+00 3.338605e-04 0
3.839915e+00 5.088890e-04 0
3.839788e+00 7.231749e-04 0
3.839609e+00 9.813708e-04 0
3.839366e+00 1.288781e-03 0
3.839047e+00 1.651371e-03 0
3.838639e+00 2.075812e-03 0
3.838127e+00 2.569548e-03 0
3.837493e+00 3.140903e-03 0
3.836718e+00 3.799279e-03 0
3.835782e+00 4.555406e-03 0
3.834661e+00 5.421677e-03 0
3.833329e+00 6.412617e-03 0
3.831755e+00 7.545455e-03 0
3.829908e+00 8.840847e-03 0
3.827747e+00 1.032379e-02 0
3.825231e+00 1.202465e-02 0
3.822306e+00 1.398011e-02 0
3.818910e+00 1.623381e-02 0
3.814967e+00 1.883583e-02 0
3.810374e+00 2.183890e-02 0
3.804994e+00 2.528669e-02 0
3.798630e+00 2.918348e-02 0
3.790989e+00 3.342230e-02 0
3.781653e+00 3.762975e-02 0
3.770143e+00 4.089340e-02 0
3.756404e+00 4.153243e-02 0
3.742500e+00 3.804699e-02 0
3.732430e+00 3.150182e-02 0
3.725999e+00 2.442696e-02 0
3.722028e+00 1.819665e-02 0
3.719560e+00 1.319754e-02 0
3.717997e+00 9.362916e-03 0
3.716994e+00 6.486732e-03 0
3.716349e+00 4.353999e-03 0
3.715941e+00 2.781956e-03 0
3.715689e+00 1.627237e-03 0
3.715530e+00 7.842080e-04 0
3.715425e+00 1.775482e-04 0
3.715326e+00 -2.497366e-04 0
3.715216e+00 -5.352892e-04 0
3.715090e+00 -7.027243e-04 0
3.714944e+00 -7.732998e-04 0
3.714776e+00 -7.655150e-04 0
3.714587e+00 -6.952594e-04 0
3.714376e+00 -5.760876e-04 0
3.714144e+00 -4.196588e-04 0
3.713891e+00 -2.364827e-04 0
3.713621e+00 -4.103067e-05 0
3.713336e+00 1.563119e-04 0
3.713033e+00 3.548011e-04 0
3.712701e+00 5.508083e-04 0
3.712336e+00 7.392654e-04 0
3.711936e+00 9.183998e-04 0
3.711500e+00 1.087630e-03 0
3.711028e+00 1.247306e-03 0
3.710521e+00 1.398144e-03 0
3.709980e+00 1.540816e-03 0
3.709405e+00 1.675855e-03 0
3.708800e+00 1.803671e-03 0
3.708165e+00 1.924590e-03 0
3.707502e+00 2.038889e-03 0
3.706813e+00 2.146825e-03 0
3.706098e+00 2.248655e-03 0
3.705359e+00 2.344633e-03 0
3.704598e+00 2.435011e-03 0
3.703815e+00 2.520025e-03 0
3.703013e+00 2.599894e-03 0
3.702191e+00 2.674829e-03 0
3.701352e+00 2.745042e-03 0
3.700497e+00 2.810750e-03 0
3.699625e+00 2.872174e-03 0
3.698739e+00 2.929523e-03 0
3.697840e+00 2.982990e-03 0
3.696927e+00 3.032751e-03 0
3.696002e+00 3.078974e-03 0
3.695067e+00 3.121830e-03 0
3.694120e+00 3.161490e-03 0
3.693164e+00 3.198125e-03 0
3.692199e+00 3.231891e-03 0
3.691226e+00 3.262931e-03 0
3.690244e+00 3.291377e-03 0
3.689256e+00 3.317355e-03 0
3.688261e+00 3.340993e-03 0
3.687259e+00 3.362415e-03 0
3.686253e+00 3.381739e-03 0
3.685241e+00 3.399075e-03 0
3.684224e+00 3.414523e-03 0
3.683203e+00 3.428178e-03 0
3.682178e+00 3.440130e-03 0
3.681150e+00 3.450469e-03 0
3.680119e+00 3.459281e-03 0
3.679085e+00 3.466647e-03 0
3.678048e+00 3.472639e-03 0
3.677009e+00 3.477327e-03 0
3.675969e+00 3.480772e-03 0
3.674927e+00 3.483038e-03 0
3.673884e+00 3.484183e-03 0
3.672840e+00 3.484268e-03 0
3.671795e+00 3.483346e-03 0
3.670749e+00 3.481465e-03 0
3.669704e+00 3.478667e-03 0
3.668658e+00 3.474995e-03 0
3.667612e+00 3.470487e-03 0
3.666567e+00 3.465182e-03 0
3.665522e+00 3.459117e-03 0
3.664478e+00 3.452327e-03 0
3.663435e+00 3.444843e-03 0
3.662392e+00 3.436692e-03 0
3.661351e+00 3.427899e-03 0
3.660311e+00 3.418488e-03 0
3.659273e+00 3.408477e-03 0
3.658236e+00 3.397887e-03 0
3.657201e+00 3.386734e-03 0
3.656168e+00 3.375036e-03 0
3.655137e+00 3.362810e-03 0
3.654109e+00 3.350070e-03 0
3.653082e+00 3.336827e-03 0
3.652058e+00 3.323090e-03 0
3.651036e+00 3.308867e-03 0
3.650018e+00 3.294164e-03 0
3.649001e+00 3.278988e-03 0
3.647988e+00 3.263344e-03 0
3.646978e+00 3.247238e-03 0
3.645971e+00 3.230672e-03 0
3.644967e+00 3.213648e-03 0
3.643966e+00 3.196167e-03 0
3.642969e+00 3.178230e-03 0
3.641976e+00 3.159834e-03 0
3.640986e+00 3.140980e-03 0
3.640000e+00 3.121664e-03 0
3.639019e+00 3.101883e-03 0
3.638041e+00 3.081631e-03 0
3.637067e+00 3.060901e-03 0
3.636098e+00 3.039683e-03 0
3.635133e+00 3.017962e-03 0
3.634173e+00 2.995719e-03 0
3.633217e+00 2.972924e-03 0
3.632266e+00 2.949536e-03 0
3.631320e+00 2.925493e-03 0
3.630380e+00 2.900706e-03 0
3.629444e+00 2.875044e-03 0
3.628514e+00 2.848314e-03 0
3.627590e+00 2.820228e-03 0
3.626671e+00 2.790356e-03 0
3.625759e+00 2.758048e-03 0
3.624852e+00 2.722314e-03 0
3.623952e+00 2.681654e-03 0
3.623057e+00 2.633862e-03 0
3.622167e+00 2.576108e-03 0
3.621277e+00 2.505491e-03 0
3.620378e+00 2.439917e-03 0
3.620378e+00 2.413210e-03 0
4.236280e+00 -1.075585e-04 0
4.236280e+00 -9.952008e-05 0
4.236311e+00 -6.856115e-05 0
4.236336e+00 -7.303818e-06 0
4.236353e+00 8.601211e-05 0
4.236357e+00 2.140388e-04 0
4.236344e+00 3.800586e-04 0
4.236309e+00 5.881888e-04 0
4.236246e+00 8.433477e-04 0
4.236149e+00 1.151237e-03 0
4.236010e+00 1.518328e-03 0
4.235821e+00 1.951869e-03 0
4.235572e+00 2.459918e-03 0
4.235253e+00 3.051398e-03 0
4.234851e+00 3.736224e-03 0
4.234353e+00 4.525507e-03 0
4.233745e+00 5.431833e-03 0
4.233012e+00 6.469655e-03 0
4.232135e+00 7.655823e-03 0
4.231096e+00 9.010282e-03 0
4.229875e+00 1.055702e-02 0
4.228448e+00 1.232529e-02 0
4.226789e+00 1.435112e-02 0
4.224870e+00 1.667936e-02 0
4.222651e+00 1.936629e-02 0
4.220085e+00 2.248292e-02 0
4.217102e+00 2.611882e-02 0
4.213585e+00 3.038504e-02 0
4.209332e+00 3.540819e-02 0
4.203946e+00 4.128587e-02 0
4.196632e+00 4.789826e-02 0
4.185848e+00 5.427597e-02 0
4.169206e+00 5.693286e-02 0
4.149786e+00 5.104810e-02 0
4.140448e+00 3.944263e-02 0
4.136943e+00 2.866258e-02 0
4.135947e+00 2.034608e-02 0
4.135893e+00 1.427918e-02 0
4.136141e+00 9.909725e-03 0
4.136453e+00 6.760260e-03 0
4.136747e+00 4.482954e-03 0
4.136998e+00 2.834191e-03 0
4.137200e+00 1.643959e-03 0
4.137350e+00 7.932819e-04 0
4.137448e+00 1.987641e-04 0
4.137494e+00 -2.015690e-04 0
4.137487e+00 -4.526686e-04 0
4.137432e+00 -5.850885e-04 0
4.137332e+00 -6.226656e-04 0
4.137194e+00 -5.847278e-04 0
4.137023e+00 -4.872504e-04 0
4.136823e+00 -3.433816e-04 0
4.136599e+00 -1.651046e-04 0
4.136354e+00 3.436346e-05 0
4.136090e+00 2.472995e-04 0
4.135803e+00 4.697536e-04 0
4.135492e+00 6.956975e-04 0
4.135157e+00 9.199384e-04 0
4.134798e+00 1.138446e-03 0
4.134412e+00 1.348869e-03 0
4.134000e+00 1.550026e-03 0
4.133561e+00 1.741566e-03 0
4.133095e+00 1.923601e-03 0
4.132604e+00 2.096426e-03 0
4.132088e+00 2.260374e-03 0
4.131549e+00 2.415768e-03 0
4.130987e+00 2.562908e-03 0
4.130404e+00 2.702084e-03 0
4.129800e+00 2.833589e-03 0
4.129178e+00 2.957725e-03 0
4.128537e+00 3.074793e-03 0
4.127879e+00 3.185086e-03 0