<?xml version="1.0"?>
<VTKFile type="StructuredGrid">
<StructuredGrid WholeExtent="0 158 0 30 0 0 ">
<Piece Extent="0 158 0 30 0 0 ">
<Points>
<DataArray type="Float64" format="ascii" NumberOfComponents="3">
0.000000e+00 0.000000e+00 0.000000e+00
3.164557e-02 0.000000e+00 0.000000e+00
6.329114e-02 0.000000e+00 0.000000e+00
9.493671e-02 0.000000e+00 0.000000e+00
1.265823e-01 0.000000e+00 0.000000e+00
1.582278e-01 0.000000e+00 0.000000e+00
1.898734e-01 0.000000e+00 0.000000e+00
2.215190e-01 0.000000e+00 0.000000e+00
2.531646e-01 0.000000e+00 0.000000e+00
2.848101e-01 0.000000e+00 0.000000e+00
3.164557e-01 0.000000e+00 0.000000e+00
3.481013e-01 0.000000e+00 0.000000e+00
3.797468e-01 0.000000e+00 0.000000e+00
4.113924e-01 0.000000e+00 0.000000e+00
4.430380e-01 0.000000e+00 0.000000e+00
4.746835e-01 0.000000e+00 0.000000e+00
5.063291e-01 0.000000e+00 0.000000e+00
5.379747e-01 0.000000e+00 0.000000e+00
5.696203e-01 0.000000e+00 0.000000e+00
6.012658e-01 0.000000e+00 0.000000e+00
6.329114e-01 0.000000e+00 0.000000e+00
6.645570e-01 0.000000e+00 0.000000e+00
6.962025e-01 0.000000e+00 0.000000e+00
7.278481e-01 0.000000e+00 0.000000e+00
7.594937e-01 0.000000e+00 0.000000e+00
7.911392e-01 0.000000e+00 0.000000e+00
8.227848e-01 0.000000e+00 0.000000e+00
8.544304e-01 0.000000e+00 0.000000e+00
8.860759e-01 0.000000e+00 0.000000e+00
9.177215e-01 0.000000e+00 0.000000e+00
9.493671e-01 0.000000e+00 0.000000e+00
9.810127e-01 0.000000e+00 0.000000e+00
1.012658e+00 0.000000e+00 0.000000e+00
1.044304e+00 0.000000e+00 0.000000e+00
1.075949e+00 0.000000e+00 0.000000e+00
1.107595e+00 0.000000e+00 0.000000e+00
1.139241e+00 0.000000e+00 0.000000e+00
1.170886e+00 0.000000e+00 0.000000e+00
1.202532e+00 0.000000e+00 0.000000e+00
1.234177e+00 0.000000e+00 0.000000e+00
1.265823e+00 0.000000e+00 0.000000e+00
1.297468e+00 0.000000e+00 0.000000e+00
1.329114e+00 0.000000e+00 0.000000e+00
1.360759e+00 0.000000e+00 0.000000e+00
1.392405e+00 0.000000e+00 0.000000e+00
1.424051e+00 0.000000e+00 0.000000e+00
1.455696e+00 0.000000e+00 0.000000e+00
1.487342e+00 0.000000e+00 0.000000e+00
1.518987e+00 0.000000e+00 0.000000e+00
1.550633e+00 0.000000e+00 0.000000e+00
1.582278e+00 0.000000e+00 0.000000e+00
1.613924e+00 0.000000e+00 0.000000e+00
1.645570e+00 0.000000e+00 0.000000e+00
1.677215e+00 0.000000e+00 0.000000e+00
1.708861e+00 0.000000e+00 0.000000e+00
1.740506e+00 0.000000e+00 0.000000e+00
1.772152e+00 0.000000e+00 0.000000e+00
1.803797e+00 0.000000e+00 0.000000e+00
1.835443e+00 0.000000e+00 0.000000e+00
1.867089e+00 0.000000e+00 0.000000e+00
1.898734e+00 0.000000e+00 0.000000e+00
1.930380e+00 0.000000e+00 0.000000e+00
1.962025e+00 0.000000e+00 0.000000e+00
1.993671e+00 0.000000e+00 0.000000e+00
2.025316e+00 0.000000e+00 0.000000e+00
2.056962e+00 0.000000e+00 0.000000e+00
2.088608e+00 0.000000e+00 0.000000e+00
2.120253e+00 0.000000e+00 0.000000e+00
2.151899e+00 0.000000e+00 0.000000e+00
2.183544e+00 0.000000e+00 0.000000e+00
2.215190e+00 0.000000e+00 0.000000e+00
2.246835e+00 0.000000e+00 0.000000e+00
2.278481e+00 0.000000e+00 0.000000e+00
2.310127e+00 0.000000e+00 0.000000e+00
2.341772e+00 0.000000e+00 0.000000e+00
2.373418e+00 0.000000e+00 0.000000e+00
2.405063e+00 0.000000e+00 0.000000e+00
2.436709e+00 0.000000e+00 0.000000e+00
2.468354e+00 0.000000e+00 0.000000e+00
2.500000e+00 0.000000e+00 0.000000e+00
2.531646e+00 0.000000e+00 0.000000e+00
2.563291e+00 0.000000e+00 0.000000e+00
2.594937e+00 0.000000e+00 0.000000e+00
2.626582e+00 0.000000e+00 0.000000e+00
2.658228e+00 0.000000e+00 0.000000e+00
2.689873e+00 0.000000e+00 0.000000e+00
2.721519e+00 0.000000e+00 0.000000e+00
2.753165e+00 0.000000e+00 0.000000e+00
2.784810e+00 0.000000e+00 0.000000e+00
2.816456e+00 0.000000e+00 0.000000e+00
2.848101e+00 0.000000e+00 0.000000e+00
2.879747e+00 0.000000e+00 0.000000e+00
2.911392e+00 0.000000e+00 0.000000e+00
2.943038e+00 0.000000e+00 0.000000e+00
2.974684e+00 0.000000e+00 0.000000e+00
3.006329e+00 0.000000e+00 0.000000e+00
3.037975e+00 0.000000e+00 0.000000e+00
3.069620e+00 0.000000e+00 0.000000e+00
3.101266e+00 0.000000e+00 0.000000e+00
3.132911e+00 0.000000e+00 0.000000e+00
3.164557e+00 0.000000e+00 0.000000e+00
3.196203e+00 0.000000e+00 0.000000e+00
3.227848e+00 0.000000e+00 0.000000e+00
3.259494e+00 0.000000e+00 0.000000e+00
3.291139e+00 0.000000e+00 0.000000e+00
3.322785e+00 0.000000e+00 0.000000e+00
3.354430e+00 0.000000e+00 0.000000e+00
3.386076e+00 0.000000e+00 0.000000e+00
3.417722e+00 0.000000e+00 0.000000e+00
3.449367e+00 0.000000e+00 0.000000e+00
3.481013e+00 0.000000e+00 0.000000e+00
3.512658e+00 0.000000e+00 0.000000e+00
3.544304e+00 0.000000e+00 0.000000e+00
3.575949e+00 0.000000e+00 0.000000e+00
3.607595e+00 0.000000e+00 0.000000e+00
3.639241e+00 0.000000e+00 0.000000e+00
3.670886e+00 0.000000e+00 0.000000e+00
3.702532e+00 0.000000e+00 0.000000e+00
3.734177e+00 0.000000e+00 0.000000e+00
3.765823e+00 0.000000e+00 0.000000e+00
3.797468e+00 0.000000e+00 0.000000e+00
3.829114e+00 0.000000e+00 0.000000e+00
3.860759e+00 0.000000e+00 0.000000e+00
3.892405e+00 0.000000e+00 0.000000e+00
3.924051e+00 0.000000e+00 0.000000e+00
3.955696e+00 0.000000e+00 0.000000e+00
3.987342e+00 0.000000e+00 0.000000e+00
4.018987e+00 0.000000e+00 0.000000e+00
4.050633e+00 0.000000e+00 0.000000e+00
4.082278e+00 0.000000e+00 0.000000e+00
4.113924e+00 0.000000e+00 0.000000e+00
4.145570e+00 0.000000e+00 0.000000e+00
4.177215e+00 0.000000e+00 0.000000e+00
4.208861e+00 0.000000e+00 0.000000e+00
4.240506e+00 0.000000e+00 0.000000e+00
4.272152e+00 0.000000e+00 0.000000e+00
4.303797e+00 0.000000e+00 0.000000e+00
4.335443e+00 0.000000e+00 0.000000e+00
4.367089e+00 0.000000e+00 0.000000e+00
4.398734e+00 0.000000e+00 0.000000e+00
4.430380e+00 0.000000e+00 0.000000e+00
4.462025e+00 0.000000e+00 0.000000e+00
4.493671e+00 0.000000e+00 0.000000e+00
4.525316e+00 0.000000e+00 0.000000e+00
4.556962e+00 0.000000e+00 0.000000e+00
4.588608e+00 0.000000e+00 0.000000e+00
4.620253e+00 0.000000e+00 0.000000e+00
4.651899e+00 0.000000e+00 0.000000e+00
4.683544e+00 0.000000e+00 0.000000e+00
4.715190e+00 0.000000e+00 0.000000e+00
4.746835e+00 0.000000e+00 0.000000e+00
4.778481e+00 0.000000e+00 0.000000e+00
4.810127e+00 0.000000e+00 0.000000e+00
4.841772e+00 0.000000e+00 0.000000e+00
4.873418e+00 0.000000e+00 0.000000e+00
4.905063e+00 0.000000e+00 0.000000e+00
4.936709e+00 0.000000e+00 0.000000e+00
4.968354e+00 0.000000e+00 0.000000e+00
5.000000e+00 0.000000e+00 0.000000e+00
0.000000e+00 3.333333e-02 0.000000e+00
3.164557e-02 3.333333e-02 0.000000e+00
6.329114e-02 3.333333e-02 0.000000e+00
9.493671e-02 3.333333e-02 0.000000e+00
1.265823e-01 3.333333e-02 0.000000e+00
1.582278e-01 3.333333e-02 0.000000e+00
1.898734e-01 3.333333e-02 0.000000e+00
2.215190e-01 3.333333e-02 0.000000e+00
2.531646e-01 3.333333e-02 0.000000e+00
2.848101e-01 3.333333e-02 0.000000e+00
3.164557e-01 3.333333e-02 0.000000e+00
3.481013e-01 3.333333e-02 0.000000e+00
3.797468e-01 3.333333e-02 0.000000e+00
4.113924e-01 3.333333e-02 0.000000e+00
4.430380e-01 3.333333e-02 0.000000e+00
4.746835e-01 3.333333e-02 0.000000e+00
5.063291e-01 3.333333e-02 0.000000e+00
5.379747e-01 3.333333e-02 0.000000e+00
5.696203e-01 3.333333e-02 0.000000e+00
6.012658e-01 3.333333e-02 0.000000e+00
6.329114e-01 3.333333e-02 0.000000e+00
6.645570e-01 3.333333e-02 0.000000e+00
6.962025e-01 3.333333e-02 0.000000e+00
7.278481e-01 3.333333e-02 0.000000e+00
7.594937e-01 3.333333e-02 0.000000e+00
7.911392e-01 3.333333e-02 0.000000e+00
8.227848e-01 3.333333e-02 0.000000e+00
8.544304e-01 3.333333e-02 0.000000e+00
8.860759e-01 3.333333e-02 0.000000e+00
9.177215e-01 3.333333e-02 0.000000e+00
9.493671e-01 3.333333e-02 0.000000e+00
9.810127e-01 3.333333e-02 0.000000e+00
1.012658e+00 3.333333e-02 0.000000e+00
1.044304e+00 3.333333e-02 0.000000e+00
1.075949e+00 3.333333e-02 0.000000e+00
1.107595e+00 3.333333e-02 0.000000e+00
1.139241e+00 3.333333e-02 0.000000e+00
1.170886e+00 3.333333e-02 0.000000e+00
1.202532e+00 3.333333e-02 0.000000e+00
1.234177e+00 3.333333e-02 0.000000e+00
1.265823e+00 3.333333e-02 0.000000e+00
1.297468e+00 3.333333e-02 0.000000e+00
1.329114e+00 3.333333e-02 0.000000e+00
1.360759e+00 3.333333e-02 0.000000e+00
1.392405e+00 3.333333e-02 0.000000e+00
1.424051e+00 3.333333e-02 0.000000e+00
1.455696e+00 3.333333e-02 0.000000e+00
1.487342e+00 3.333333e-02 0.000000e+00
1.518987e+00 3.333333e-02 0.000000e+00
1.550633e+00 3.333333e-02 0.000000e+00
1.582278e+00 3.333333e-02 0.000000e+00
1.613924e+00 3.333333e-02 0.000000e+00
1.645570e+00 3.333333e-02 0.000000e+00
1.677215e+00 3.333333e-02 0.000000e+00
1.708861e+00 3.333333e-02 0.000000e+00
1.740506e+00 3.333333e-02 0.000000e+00
1.772152e+00 3.333333e-02 0.000000e+00
1.803797e+00 3.333333e-02 0.000000e+00
1.835443e+00 3.333333e-02 0.000000e+00
1.867089e+00 3.333333e-02 0.000000e+00
1.898734e+00 3.333333e-02 0.000000e+00
1.930380e+00 3.333333e-02 0.000000e+00
1.962025e+00 3.333333e-02 0.000000e+00
1.993671e+00 3.333333e-02 0.000000e+00
2.025316e+00 3.333333e-02 0.000000e+00
2.056962e+00 3.333333e-02 0.000000e+00
2.088608e+00 3.333333e-02 0.000000e+00
2.120253e+00 3.333333e-02 0.000000e+00
2.151899e+00 3.333333e-02 0.000000e+00
2.183544e+00 3.333333e-02 0.000000e+00
2.215190e+00 3.333333e-02 0.000000e+00
2.246835e+00 3.333333e-02 0.000000e+00
2.278481e+00 3.333333e-02 0.000000e+00
2.310127e+00 3.333333e-02 0.000000e+00
2.341772e+00 3.333333e-02 0.000000e+00
2.373418e+00 3.333333e-02 0.000000e+00
2.405063e+00 3.333333e-02 0.000000e+00
2.436709e+00 3.333333e-02 0.000000e+00
2.468354e+00 3.333333e-02 0.000000e+00
2.500000e+00 3.333333e-02 0.000000e+00
2.531646e+00 3.333333e-02 0.000000e+00
2.563291e+00 3.333333e-02 0.000000e+00
2.594937e+00 3.333333e-02 0.000000e+00
2.626582e+00 3.333333e-02 0.000000e+00
2.658228e+00 3.333333e-02 0.000000e+00
2.689873e+00 3.333333e-02 0.000000e+00
2.721519e+00 3.333333e-02 0.000000e+00
2.753165e+00 3.333333e-02 0.000000e+00
2.784810e+00 3.333333e-02 0.000000e+00
2.816456e+00 3.333333e-02 0.000000e+00
2.848101e+00 3.333333e-02 0.000000e+00
2.879747e+00 3.333333e-02 0.000000e+00
[...]
<PointData>
<DataArray Name="Velocity" type="Float64" format="ascii" NumberOfComponents="3">
0.000000e+00 0.000000e+00 0
0.000000e+00 0.000000e+00 0
0.000000e+00 0.000000e+00 0
0.000000e+00 0.000000e+00 0
0.000000e+00 0.000000e+00 0
0.000000e+00 0.000000e+00 0
0.000000e+00 0.000000e+00 0
0.000000e+00 0.000000e+00 0
0.000000e+00 0.000000e+00 0
0.000000e+00 0.000000e+00 0
0.000000e+00 0.000000e+00 0
0.000000e+00 0.000000e+00 0
0.000000e+00 0.000000e+00 0
0.000000e+00 0.000000e+00 0
0.000000e+00 0.000000e+00 0
0.000000e+00 0.000000e+00 0
0.000000e+00 0.000000e+00 0
0.000000e+00 0.000000e+00 0
0.000000e+00 0.000000e+00 0
-4.984448e-17 0.000000e+00 0
0.000000e+00 0.000000e+00 0
0.000000e+00 0.000000e+00 0
0.000000e+00 0.000000e+00 0
2.708694e-17 0.000000e+00 0
0.000000e+00 0.000000e+00 0
0.000000e+00 0.000000e+00 0
0.000000e+00 0.000000e+00 0
-3.526188e-17 0.000000e+00 0
0.000000e+00 0.000000e+00 0
0.000000e+00 0.000000e+00 0
0.000000e+00 0.000000e+00 0
-2.515963e-17 0.000000e+00 0
0.000000e+00 0.000000e+00 0
0.000000e+00 0.000000e+00 0
0.000000e+00 0.000000e+00 0
0.000000e+00 0.000000e+00 0
0.000000e+00 0.000000e+00 0
0.000000e+00 0.000000e+00 0
-2.644227e-19 0.000000e+00 0
0.000000e+00 0.000000e+00 0
0.000000e+00 0.000000e+00 0
0.000000e+00 0.000000e+00 0
0.000000e+00 0.000000e+00 0
0.000000e+00 0.000000e+00 0
0.000000e+00 0.000000e+00 0
0.000000e+00 0.000000e+00 0
1.173688e-18 0.000000e+00 0
0.000000e+00 0.000000e+00 0
0.000000e+00 0.000000e+00 0
0.000000e+00 0.000000e+00 0
0.000000e+00 0.000000e+00 0
0.000000e+00 0.000000e+00 0
0.000000e+00 0.000000e+00 0
0.000000e+00 0.000000e+00 0
-1.740673e-17 0.000000e+00 0
0.000000e+00 0.000000e+00 0
0.000000e+00 0.000000e+00 0
0.000000e+00 0.000000e+00 0
0.000000e+00 0.000000e+00 0
0.000000e+00 0.000000e+00 0
0.000000e+00 0.000000e+00 0
0.000000e+00 0.000000e+00 0
-1.525285e-17 0.000000e+00 0
0.000000e+00 0.000000e+00 0
0.000000e+00 0.000000e+00 0
0.000000e+00 0.000000e+00 0
0.000000e+00 0.000000e+00 0
0.000000e+00 0.000000e+00 0
0.000000e+00 0.000000e+00 0
0.000000e+00 0.000000e+00 0
0.000000e+00 0.000000e+00 0
0.000000e+00 0.000000e+00 0
0.000000e+00 0.000000e+00 0
0.000000e+00 0.000000e+00 0
0.000000e+00 0.000000e+00 0
0.000000e+00 0.000000e+00 0
0.000000e+00 0.000000e+00 0
0.000000e+00 0.000000e+00 0
0.000000e+00 0.000000e+00 0
0.000000e+00 0.000000e+00 0
0.000000e+00 0.000000e+00 0
0.000000e+00 0.000000e+00 0
0.000000e+00 0.000000e+00 0
0.000000e+00 0.000000e+00 0
0.000000e+00 0.000000e+00 0
0.000000e+00 0.000000e+00 0
0.000000e+00 0.000000e+00 0
0.000000e+00 0.000000e+00 0
0.000000e+00 0.000000e+00 0
0.000000e+00 0.000000e+00 0
0.000000e+00 0.000000e+00 0
0.000000e+00 0.000000e+00 0
0.000000e+00 0.000000e+00 0
0.000000e+00 0.000000e+00 0
0.000000e+00 0.000000e+00 0
0.000000e+00 0.000000e+00 0
0.000000e+00 0.000000e+00 0
0.000000e+00 0.000000e+00 0
0.000000e+00 0.000000e+00 0
0.000000e+00 0.000000e+00 0
0.000000e+00 0.000000e+00 0
0.000000e+00 0.000000e+00 0
0.000000e+00 0.000000e+00 0
0.000000e+00 0.000000e+00 0
0.000000e+00 0.000000e+00 0
0.000000e+00 0.000000e+00 0
0.000000e+00 0.000000e+00 0
0.000000e+00 0.000000e+00 0
0.000000e+00 0.000000e+00 0
0.000000e+00 0.000000e+00 0
0.000000e+00 0.000000e+00 0
0.000000e+00 0.000000e+00 0
0.000000e+00 0.000000e+00 0
0.000000e+00 0.000000e+00 0
0.000000e+00 0.000000e+00 0
0.000000e+00 0.000000e+00 0
0.000000e+00 0.000000e+00 0
0.000000e+00 0.000000e+00 0
0.000000e+00 0.000000e+00 0
0.000000e+00 0.000000e+00 0
0.000000e+00 0.000000e+00 0
0.000000e+00 0.000000e+00 0
0.000000e+00 0.000000e+00 0
0.000000e+00 0.000000e+00 0
0.000000e+00 0.000000e+00 0
0.000000e+00 0.000000e+00 0
0.000000e+00 0.000000e+00 0
0.000000e+00 0.000000e+00 0
0.000000e+00 0.000000e+00 0
0.000000e+00 0.000000e+00 0
0.000000e+00 0.000000e+00 0
0.000000e+00 0.000000e+00 0
0.000000e+00 0.000000e+00 0
0.000000e+00 0.000000e+00 0
0.000000e+00 0.000000e+00 0
0.000000e+00 0.000000e+00 0
0.000000e+00 0.000000e+00 0
0.000000e+00 0.000000e+00 0
0.000000e+00 0.000000e+00 0
0.000000e+00 0.000000e+00 0
0.000000e+00 0.000000e+00 0
0.000000e+00 0.000000e+00 0
0.000000e+00 0.000000e+00 0
0.000000e+00 0.000000e+00 0
0.000000e+00 0.000000e+00 0
0.000000e+00 0.000000e+00 0
0.000000e+00 0.000000e+00 0
0.000000e+00 0.000000e+00 0
0.000000e+00 0.000000e+00 0
0.000000e+00 0.000000e+00 0
0.000000e+00 0.000000e+00 0
0.000000e+00 0.000000e+00 0
0.000000e+00 0.000000e+00 0
0.000000e+00 0.000000e+00 0
0.000000e+00 0.000000e+00 0
0.000000e+00 0.000000e+00 0
0.000000e+00 0.000000e+00 0
0.000000e+00 0.000000e+00 0
0.000000e+00 0.000000e+00 0
1.758768e+00 -4.370271e-05 0
1.758768e+00 -4.656630e-05 0
1.758806e+00 -4.127506e-05 0
1.758830e+00 -1.822296e-05 0
1.758828e+00 1.571628e-05 0
1.758791e+00 5.956659e-05 0
1.758707e+00 1.158931e-04 0
1.758562e+00 1.865067e-04 0
1.758343e+00 2.732058e-04 0
1.758033e+00 3.779721e-04 0
1.757614e+00 5.030631e-04 0
1.757065e+00 6.510454e-04 0
1.756364e+00 8.248076e-04 0
1.755484e+00 1.027610e-03 0
1.754396e+00 1.263129e-03 0
1.753068e+00 1.535504e-03 0
1.751461e+00 1.849461e-03 0
1.749534e+00 2.210507e-03 0
1.747239e+00 2.625131e-03 0
1.744521e+00 3.101054e-03 0
1.741319e+00 3.647533e-03 0
1.737560e+00 4.275658e-03 0
1.733161e+00 4.998613e-03 0
1.728024e+00 5.831782e-03 0
1.722035e+00 6.792385e-03 0
1.715064e+00 7.897995e-03 0
1.706960e+00 9.162555e-03 0
1.697563e+00 1.058752e-02 0
1.686711e+00 1.214448e-02 0
1.674286e+00 1.374479e-02 0
1.660285e+00 1.519739e-02 0
1.644956e+00 1.617685e-02 0
1.628968e+00 1.627131e-02 0
1.613494e+00 1.521449e-02 0
1.599829e+00 1.318616e-02 0
1.588637e+00 1.070229e-02 0
1.579965e+00 8.236601e-03 0
1.573516e+00 6.063683e-03 0
1.568883e+00 4.281063e-03 0
1.565666e+00 2.880598e-03 0
1.563528e+00 1.805895e-03 0
1.562203e+00 9.821554e-04 0
1.561490e+00 2.886203e-04 0
1.561239e+00 -3.361089e-04 0
1.561352e+00 -8.447631e-04 0
1.561737e+00 -1.215435e-03 0
1.562311e+00 -1.462692e-03 0
1.563001e+00 -1.604356e-03 0
1.563749e+00 -1.658456e-03 0
1.564507e+00 -1.641686e-03 0
1.565235e+00 -1.568815e-03 0
1.565903e+00 -1.452586e-03 0
1.566488e+00 -1.303834e-03 0
1.566973e+00 -1.131642e-03 0
1.567346e+00 -9.434016e-04 0
1.567599e+00 -7.443840e-04 0
1.567727e+00 -5.379199e-04 0
1.567738e+00 -3.306004e-04 0
1.567647e+00 -1.412618e-04 0
1.567463e+00 9.639741e-07 0
1.567194e+00 1.008305e-04 0
1.566847e+00 1.843708e-04 0
1.566429e+00 2.592240e-04 0
1.565946e+00 3.281007e-04 0
1.565401e+00 3.922139e-04 0
1.564798e+00 4.522368e-04 0
1.564141e+00 5.085953e-04 0
1.563433e+00 5.615690e-04 0
1.562677e+00 6.113448e-04 0
1.561876e+00 6.580604e-04 0
1.561033e+00 7.018431e-04 0
1.560149e+00 7.428338e-04 0
1.559228e+00 7.811900e-04 0
1.558272e+00 8.170738e-04 0
1.557283e+00 8.506328e-04 0
1.556264e+00 8.819878e-04 0
1.555215e+00 9.112337e-04 0
1.554140e+00 9.384507e-04 0
1.553039e+00 9.637202e-04 0
1.551915e+00 9.871357e-04 0
1.550769e+00 1.008803e-03 0
1.549603e+00 1.028831e-03 0
1.548418e+00 1.047317e-03 0
1.547216e+00 1.064342e-03 0
1.545998e+00 1.079972e-03 0
1.544764e+00 1.094267e-03 0
1.543518e+00 1.107292e-03 0
1.542258e+00 1.119119e-03 0
1.540988e+00 1.129820e-03 0
1.539706e+00 1.139461e-03 0
1.538416e+00 1.148098e-03 0
1.537116e+00 1.155775e-03 0
1.535809e+00 1.162537e-03 0
1.534495e+00 1.168428e-03 0
1.533175e+00 1.173499e-03 0
1.531850e+00 1.177801e-03 0
1.530520e+00 1.181381e-03 0
1.529185e+00 1.184278e-03 0
1.527848e+00 1.186524e-03 0
1.526507e+00 1.188148e-03 0
1.525164e+00 1.189175e-03 0
1.523820e+00 1.189635e-03 0
1.522474e+00 1.189560e-03 0
1.521127e+00 1.188983e-03 0
1.519780e+00 1.187936e-03 0
1.518433e+00 1.186444e-03 0
1.517087e+00 1.184526e-03 0
1.515742e+00 1.182199e-03 0
1.514397e+00 1.179477e-03 0
1.513055e+00 1.176378e-03 0
1.511714e+00 1.172921e-03 0
1.510376e+00 1.169127e-03 0
1.509041e+00 1.165014e-03 0
1.507708e+00 1.160596e-03 0
1.506379e+00 1.155883e-03 0
1.505053e+00 1.150886e-03 0
1.503731e+00 1.145612e-03 0
1.502413e+00 1.140072e-03 0
1.501099e+00 1.134275e-03 0
1.499790e+00 1.128232e-03 0
1.498485e+00 1.121951e-03 0
1.497185e+00 1.115439e-03 0
1.495891e+00 1.108703e-03 0
1.494602e+00 1.101745e-03 0
1.493319e+00 1.094570e-03 0
1.492041e+00 1.087181e-03 0
1.490770e+00 1.079580e-03 0
1.489504e+00 1.071772e-03 0
1.488245e+00 1.063760e-03 0
1.486993e+00 1.055545e-03 0
1.485748e+00 1.047129e-03 0
1.484510e+00 1.038512e-03 0
1.483279e+00 1.029694e-03 0
1.482055e+00 1.020673e-03 0
1.480839e+00 1.011449e-03 0
1.479631e+00 1.002021e-03 0
1.478431e+00 9.923862e-04 0
1.477239e+00 9.825430e-04 0
1.476056e+00 9.724876e-04 0
1.474881e+00 9.622156e-04 0
1.473716e+00 9.517207e-04 0
1.472559e+00 9.409946e-04 0
1.471412e+00 9.300260e-04 0
1.470274e+00 9.187992e-04 0
1.469146e+00 9.072915e-04 0
1.468029e+00 8.954718e-04 0
1.466922e+00 8.832934e-04 0
1.465826e+00 8.706891e-04 0
1.464741e+00 8.575599e-04 0
1.463668e+00 8.437560e-04 0
1.462608e+00 8.290469e-04 0
1.461561e+00 8.130686e-04 0
1.460530e+00 7.952128e-04 0
1.459515e+00 7.743885e-04 0
1.458521e+00 7.482300e-04 0
1.457552e+00 7.123185e-04 0
1.456618e+00 6.247275e-04 0
1.455732e+00 7.150405e-04 0
1.455732e+00 8.718607e-04 0
2.749223e+00 -8.651302e-05 0
2.749223e+00 -8.362828e-05 0
2.749256e+00 -6.537807e-05 0
2.749276e+00 -2.361846e-05 0
2.749277e+00 4.042598e-05 0
2.749246e+00 1.279323e-04 0
2.749174e+00 2.412124e-04 0
2.749049e+00 3.832387e-04 0
2.748858e+00 5.574829e-04 0
2.748587e+00 7.679499e-04 0
2.748219e+00 1.019209e-03 0
2.747736e+00 1.316411e-03 0
2.747118e+00 1.665368e-03 0
2.746341e+00 2.072617e-03 0
2.745380e+00 2.545486e-03 0
2.744205e+00 3.092274e-03 0
2.742783e+00 3.722525e-03 0
2.741076e+00 4.447317e-03 0
2.739043e+00 5.279670e-03 0
2.736635e+00 6.235103e-03 0
2.733798e+00 7.332215e-03 0
2.730467e+00 8.593321e-03 0
2.726570e+00 1.004512e-02 0
2.722020e+00 1.171908e-02 0
2.716715e+00 1.365103e-02 0
2.710533e+00 1.587866e-02 0
2.703330e+00 1.843447e-02 0
2.694938e+00 2.132934e-02 0
2.685163e+00 2.451803e-02 0
2.673802e+00 2.783515e-02 0
2.660699e+00 3.089473e-02 0
2.645901e+00 3.298745e-02 0
2.629988e+00 3.313950e-02 0
2.614538e+00 3.069314e-02 0
2.601598e+00 2.618254e-02 0
2.591698e+00 2.092376e-02 0
2.584476e+00 1.592787e-02 0
2.579338e+00 1.167349e-02 0
2.575743e+00 8.268833e-03 0
2.573271e+00 5.639782e-03 0
2.571612e+00 3.648029e-03 0
2.570540e+00 2.146760e-03 0
2.569884e+00 1.014805e-03 0
2.569465e+00 1.453046e-04 0
2.569170e+00 -5.243721e-04 0
2.568954e+00 -1.009077e-03 0
2.568785e+00 -1.330961e-03 0
2.568641e+00 -1.515210e-03 0
2.568504e+00 -1.585959e-03 0
2.568360e+00 -1.564905e-03 0
2.568201e+00 -1.470980e-03 0
2.568016e+00 -1.320451e-03 0
2.567800e+00 -1.127186e-03 0
2.567547e+00 -9.030251e-04 0
2.567255e+00 -6.582335e-04 0
2.566922e+00 -4.009632e-04 0
2.566557e+00 -1.471296e-04 0
2.566165e+00 8.398912e-05 0
2.565746e+00 2.897654e-04 0
2.565292e+00 4.774125e-04 0
2.564780e+00 6.490279e-04 0
2.564206e+00 8.053201e-04 0
2.563573e+00 9.493837e-04 0
2.562883e+00 1.083444e-03 0
2.562140e+00 1.208929e-03 0
2.561346e+00 1.326781e-03 0
2.560504e+00 1.437648e-03 0
2.559617e+00 1.541991e-03 0
2.558687e+00 1.640164e-03 0
2.557717e+00 1.732464e-03 0
2.556709e+00 1.819175e-03 0
2.555665e+00 1.900583e-03 0
2.554587e+00 1.976975e-03 0
2.553478e+00 2.048622e-03 0
2.552339e+00 2.115770e-03 0
2.551172e+00 2.178633e-03 0
2.549979e+00 2.237404e-03 0
2.548760e+00 2.292262e-03 0
2.547519e+00 2.343392e-03 0
2.546256e+00 2.390985e-03 0
2.544973e+00 2.435237e-03 0
2.543671e+00 2.476333e-03 0
2.542351e+00 2.514440e-03 0
2.541014e+00 2.549705e-03 0
2.539662e+00 2.582265e-03 0
2.538296e+00 2.612250e-03 0
2.536917e+00 2.639796e-03 0
2.535525e+00 2.665038e-03 0
2.534122e+00 2.688107e-03 0
2.532708e+00 2.709117e-03 0
2.531284e+00 2.728171e-03 0
2.529852e+00 2.745363e-03 0
2.528412e+00 2.760784e-03 0
2.526963e+00 2.774528e-03 0
2.525509e+00 2.786688e-03 0
2.524048e+00 2.797355e-03 0
2.522581e+00 2.806609e-03 0
2.521109e+00 2.814523e-03 0
2.519633e+00 2.821161e-03 0
2.518153e+00 2.826581e-03 0
2.516670e+00 2.830844e-03 0
2.515183e+00 2.834008e-03 0
2.513694e+00 2.836132e-03 0
2.512203e+00 2.837274e-03 0
2.510710e+00 2.837488e-03 0
2.509216e+00 2.836816e-03 0
2.507720e+00 2.835300e-03 0
2.506225e+00 2.832973e-03 0
2.504728e+00 2.829870e-03 0
2.503232e+00 2.826027e-03 0
2.501736e+00 2.821480e-03 0
2.500241e+00 2.816263e-03 0
2.498747e+00 2.810406e-03 0
2.497253e+00 2.803934e-03 0
2.495761e+00 2.796868e-03 0
2.494271e+00 2.789230e-03 0
2.492783e+00 2.781037e-03 0
2.491297e+00 2.772311e-03 0
2.489813e+00 2.763068e-03 0
2.488332e+00 2.753325e-03 0
2.486853e+00 2.743098e-03 0
2.485378e+00 2.732397e-03 0
2.483906e+00 2.721233e-03 0
2.482437e+00 2.709615e-03 0
2.480972e+00 2.697550e-03 0
2.479511e+00 2.685045e-03 0
2.478053e+00 2.672107e-03 0
2.476600e+00 2.658739e-03 0
2.475152e+00 2.644947e-03 0
2.473707e+00 2.630732e-03 0
2.472268e+00 2.616097e-03 0
2.470834e+00 2.601040e-03 0
2.469404e+00 2.585561e-03 0
2.467981e+00 2.569658e-03 0
2.466562e+00 2.553330e-03 0
2.465150e+00 2.536573e-03 0
2.463743e+00 2.519381e-03 0
2.462342e+00 2.501751e-03 0
2.460948e+00 2.483673e-03 0
2.459560e+00 2.465138e-03 0
2.458179e+00 2.446133e-03 0
2.456805e+00 2.426641e-03 0
2.455439e+00 2.406640e-03 0
2.454079e+00 2.386096e-03 0
2.452728e+00 2.364966e-03 0
2.451384e+00 2.343185e-03 0
2.450048e+00 2.320662e-03 0
2.448721e+00 2.297263e-03 0
2.447403e+00 2.272792e-03 0
2.446095e+00 2.246956e-03 0
2.444796e+00 2.219307e-03 0
2.443509e+00 2.189147e-03 0
2.442233e+00 2.155350e-03 0
2.440970e+00 2.116009e-03 0
2.439722e+00 2.067789e-03 0
2.438490e+00 2.004533e-03 0
2.437275e+00 1.916713e-03 0
2.436042e+00 1.899375e-03 0
2.436042e+00 1.933464e-03 0
3.277750e+00 -1.314484e-04 0
3.277750e+00 -1.249353e-04 0
3.277790e+00 -9.737092e-05 0
3.277821e+00 -4.039432e-05 0
3.277837e+00 4.718080e-05 0
3.277831e+00 1.675111e-04 0
3.277796e+00 3.236936e-04 0
3.277724e+00 5.197252e-04 0
3.277604e+00 7.604167e-04 0
3.277428e+00 1.051367e-03 0
3.277182e+00 1.398955e-03 0
3.276853e+00 1.810393e-03 0
3.276426e+00 2.293779e-03 0
3.275883e+00 2.858139e-03 0
3.275206e+00 3.513586e-03 0
3.274372e+00 4.271587e-03 0
3.273357e+00 5.145241e-03 0
3.272134e+00 6.149697e-03 0
3.270674e+00 7.302802e-03 0
3.268941e+00 8.625790e-03 0
3.266896e+00 1.014413e-02 0
3.264497e+00 1.188862e-02 0
3.261690e+00 1.389663e-02 0
3.258414e+00 1.621335e-02 0
3.254597e+00 1.889253e-02 0
3.250144e+00 2.199584e-02 0
3.244936e+00 2.558826e-02 0
3.238806e+00 2.972383e-02 0
3.231512e+00 3.440863e-02 0
3.222696e+00 3.951353e-02 0
3.211843e+00 4.458669e-02 0
3.198360e+00 4.852576e-02 0
3.182168e+00 4.930659e-02 0
3.165733e+00 4.511868e-02 0
3.153910e+00 3.724415e-02 0
3.146454e+00 2.873807e-02 0
3.141930e+00 2.125652e-02 0
3.139183e+00 1.526216e-02 0
3.137493e+00 1.067097e-02 0
3.136446e+00 7.231577e-03 0
3.135804e+00 4.682538e-03 0
3.135423e+00 2.802585e-03 0
3.135201e+00 1.421227e-03 0
3.135071e+00 4.160080e-04 0
3.134965e+00 -3.064255e-04 0
3.134850e+00 -8.099804e-04 0
3.134715e+00 -1.132954e-03 0
3.134554e+00 -1.308094e-03 0
3.134365e+00 -1.363341e-03 0
3.134149e+00 -1.322465e-03 0
3.133906e+00 -1.205637e-03 0
3.133638e+00 -1.029938e-03 0
3.133344e+00 -8.097869e-04 0
3.133025e+00 -5.575545e-04 0
3.132683e+00 -2.850136e-04 0
3.132322e+00 -9.599220e-06 0
3.131942e+00 2.595704e-04 0
3.131537e+00 5.237924e-04 0
3.131094e+00 7.783427e-04 0
3.130610e+00 1.018908e-03 0
3.130083e+00 1.244495e-03 0
3.129512e+00 1.455268e-03 0
3.128897e+00 1.652499e-03 0
3.128239e+00 1.837559e-03 0
3.127540e+00 2.011595e-03 0
3.126802e+00 2.175500e-03 0
3.126027e+00 2.329962e-03 0
3.125217e+00 2.475522e-03 0
3.124374e+00 2.612632e-03 0
3.123499e+00 2.741701e-03 0
3.122595e+00 2.863125e-03 0
3.121663e+00 2.977292e-03 0
3.120704e+00 3.084580e-03 0
3.119721e+00 3.185339e-03 0
3.118714e+00 3.279890e-03 0
3.117684e+00 3.368521e-03 0
3.116634e+00 3.451503e-03 0
3.115565e+00 3.529100e-03 0
3.114477e+00 3.601578e-03 0
3.113372e+00 3.669204e-03 0
3.112250e+00 3.732238e-03 0
3.111114e+00 3.790923e-03 0
3.109963e+00 3.845478e-03 0
3.108799e+00 3.896107e-03 0
3.107622e+00 3.943001e-03 0
3.106434e+00 3.986351e-03 0
3.105235e+00 4.026345e-03 0
3.104026e+00 4.063169e-03 0
3.102807e+00 4.096992e-03 0
3.101580e+00 4.127968e-03 0
3.100344e+00 4.156239e-03 0
3.099101e+00 4.181938e-03 0
3.097851e+00 4.205196e-03 0
3.096595e+00 4.226144e-03 0
3.095332e+00 4.244909e-03 0
3.094065e+00 4.261609e-03 0
3.092792e+00 4.276351e-03 0
3.091515e+00 4.289232e-03 0
3.090233e+00 4.300342e-03 0
3.088948e+00 4.309767e-03 0
3.087660e+00 4.317592e-03 0
3.086368e+00 4.323898e-03 0
3.085074e+00 4.328768e-03 0
3.083778e+00 4.332274e-03 0
3.082480e+00 4.334485e-03 0
3.081179e+00 4.335461e-03 0
3.079878e+00 4.335257e-03 0
3.078575e+00 4.333924e-03 0
3.077271e+00 4.331513e-03 0
3.075967e+00 4.328075e-03 0
3.074662e+00 4.323656e-03 0
3.073357e+00 4.318301e-03 0
3.072052e+00 4.312046e-03 0
3.070747e+00 4.304927e-03 0
3.069443e+00 4.296975e-03 0
3.068139e+00 4.288217e-03 0
3.066836e+00 4.278684e-03 0
3.065534e+00 4.268399e-03 0
3.064233e+00 4.257389e-03 0
3.062933e+00 4.245675e-03 0
3.061635e+00 4.233274e-03 0
3.060339e+00 4.220203e-03 0
3.059044e+00 4.206475e-03 0
3.057751e+00 4.192101e-03 0
3.056461e+00 4.177094e-03 0
3.055172e+00 4.161462e-03 0
3.053887e+00 4.145214e-03 0
3.052603e+00 4.128355e-03 0
3.051323e+00 4.110890e-03 0
3.050045e+00 4.092821e-03 0
3.048771e+00 4.074149e-03 0
3.047499e+00 4.054874e-03 0
3.046231e+00 4.034993e-03 0
3.044967e+00 4.014506e-03 0
3.043706e+00 3.993408e-03 0
3.042449e+00 3.971694e-03 0
3.041196e+00 3.949356e-03 0
3.039947e+00 3.926388e-03 0
3.038702e+00 3.902776e-03 0
3.037462e+00 3.878510e-03 0
3.036226e+00 3.853569e-03 0
3.034996e+00 3.827933e-03 0
3.033770e+00 3.801571e-03 0
3.032549e+00 3.774440e-03 0
3.031334e+00 3.746484e-03 0
3.030124e+00 3.717619e-03 0
3.028920e+00 3.687730e-03 0
3.027721e+00 3.656650e-03 0
3.026529e+00 3.624135e-03 0
3.025343e+00 3.589826e-03 0
3.024164e+00 3.553194e-03 0
3.022992e+00 3.513444e-03 0
3.021827e+00 3.469378e-03 0
3.020669e+00 3.419193e-03 0
3.019518e+00 3.360270e-03 0
3.018372e+00 3.289305e-03 0
3.017226e+00 3.203160e-03 0
3.016069e+00 3.121252e-03 0
3.016069e+00 3.086552e-03 0
3.564727e+00 -1.816113e-04 0
3.564727e+00 -1.731116e-04 0
3.564775e+00 -1.397870e-04 0
3.564818e+00 -7.285200e-05 0
3.564852e+00 2.970621e-05 0
3.564873e+00 1.707582e-04 0
3.564876e+00 3.542894e-04 0
3.564857e+00 5.851423e-04 0
3.564809e+00 8.691524e-04 0
3.564725e+00 1.213107e-03 0
3.564596e+00 1.624749e-03 0
3.564414e+00 2.112789e-03 0
3.564167e+00 2.686904e-03 0
3.563844e+00 3.357832e-03 0
3.563431e+00 4.137563e-03 0
3.562913e+00 5.039538e-03 0
3.562274e+00 6.078983e-03 0
3.561496e+00 7.273487e-03 0
3.560560e+00 8.643633e-03 0
3.559444e+00 1.021381e-02 0
3.558125e+00 1.201334e-02 0
3.556576e+00 1.407803e-02 0
3.554769e+00 1.645202e-02 0
3.552669e+00 1.919029e-02 0
3.550233e+00 2.236193e-02 0
3.547404e+00 2.605426e-02 0
3.544098e+00 3.037772e-02 0
3.540178e+00 3.546954e-02 0
3.535395e+00 4.148691e-02 0
3.529267e+00 4.855299e-02 0
3.520819e+00 5.652825e-02 0
3.508169e+00 6.424497e-02 0
3.488415e+00 6.750721e-02 0
3.465177e+00 6.045783e-02 0
3.454185e+00 4.648980e-02 0
3.450236e+00 3.354304e-02 0
3.449281e+00 2.358673e-02 0
3.449419e+00 1.634818e-02 0
3.449883e+00 1.115192e-02 0
3.450390e+00 7.417773e-03 0
3.450847e+00 4.725186e-03 0
3.451227e+00 2.781768e-03 0
3.451523e+00 1.385152e-03 0
3.451734e+00 3.947509e-04 0
3.451868e+00 -2.912266e-04 0
3.451921e+00 -7.457316e-04 0
3.451901e+00 -1.018512e-03 0
3.451816e+00 -1.146827e-03 0
3.451676e+00 -1.160031e-03 0
3.451488e+00 -1.081981e-03 0
3.451260e+00 -9.324172e-04 0
3.450997e+00 -7.277959e-04 0
3.450705e+00 -4.815094e-04 0
3.450388e+00 -2.066126e-04 0
3.450049e+00 8.263028e-05 0
3.449690e+00 3.793548e-04 0
3.449304e+00 6.796890e-04 0
3.448891e+00 9.768210e-04 0
3.448449e+00 1.265692e-03 0
3.447978e+00 1.542709e-03 0
3.447476e+00 1.806083e-03 0
3.446942e+00 2.055258e-03 0
3.446376e+00 2.290549e-03 0
3.445780e+00 2.512645e-03 0
3.445153e+00 2.722308e-03 0
3.444497e+00 2.920245e-03 0
3.443813e+00 3.107071e-03 0
3.443103e+00 3.283327e-03 0
3.442369e+00 3.449505e-03 0
3.441610e+00 3.606080e-03 0
3.440829e+00 3.753518e-03 0
3.440027e+00 3.892274e-03 0