<?xml version="1.0"?>
<VTKFile type="StructuredGrid">
<StructuredGrid WholeExtent="0 158 0 30 0 0 ">
<Piece Extent="0 158 0 30 0 0 ">
<Points>
<DataArray type="Float64" format="ascii" NumberOfComponents="3">
0.000000e+00 0.000000e+00 0.000000e+00
3.164557e-02 0.000000e+00 0.000000e+00
6.329114e-02 0.000000e+00 0.000000e+00
9.493671e-02 0.000000e+00 0.000000e+00
1.265823e-01 0.000000e+00 0.000000e+00
1.582278e-01 0.000000e+00 0.000000e+00
1.898734e-01 0.000000e+00 0.000000e+00
2.215190e-01 0.000000e+00 0.000000e+00
2.531646e-01 0.000000e+00 0.000000e+00
2.848101e-01 0.000000e+00 0.000000e+00
3.164557e-01 0.000000e+00 0.000000e+00
3.481013e-01 0.000000e+00 0.000000e+00
3.797468e-01 0.000000e+00 0.000000e+00
4.113924e-01 0.000000e+00 0.000000e+00
4.430380e-01 0.000000e+00 0.000000e+00
4.746835e-01 0.000000e+00 0.000000e+00
5.063291e-01 0.000000e+00 0.000000e+00
5.379747e-01 0.000000e+00 0.000000e+00
5.696203e-01 0.000000e+00 0.000000e+00
6.012658e-01 0.000000e+00 0.000000e+00
6.329114e-01 0.000000e+00 0.000000e+00
6.645570e-01 0.000000e+00 0.000000e+00
6.962025e-01 0.000000e+00 0.000000e+00
7.278481e-01 0.000000e+00 0.000000e+00
7.594937e-01 0.000000e+00 0.000000e+00
7.911392e-01 0.000000e+00 0.000000e+00
8.227848e-01 0.000000e+00 0.000000e+00
8.544304e-01 0.000000e+00 0.000000e+00
8.860759e-01 0.000000e+00 0.000000e+00
9.177215e-01 0.000000e+00 0.000000e+00
9.493671e-01 0.000000e+00 0.000000e+00
9.810127e-01 0.000000e+00 0.000000e+00
1.012658e+00 0.000000e+00 0.000000e+00
1.044304e+00 0.000000e+00 0.000000e+00
1.075949e+00 0.000000e+00 0.000000e+00
1.107595e+00 0.000000e+00 0.000000e+00
1.139241e+00 0.000000e+00 0.000000e+00
1.170886e+00 0.000000e+00 0.000000e+00
1.202532e+00 0.000000e+00 0.000000e+00
1.234177e+00 0.000000e+00 0.000000e+00
1.265823e+00 0.000000e+00 0.000000e+00
1.297468e+00 0.000000e+00 0.000000e+00
1.329114e+00 0.000000e+00 0.000000e+00
1.360759e+00 0.000000e+00 0.000000e+00
1.392405e+00 0.000000e+00 0.000000e+00
1.424051e+00 0.000000e+00 0.000000e+00
1.455696e+00 0.000000e+00 0.000000e+00
1.487342e+00 0.000000e+00 0.000000e+00
1.518987e+00 0.000000e+00 0.000000e+00
1.550633e+00 0.000000e+00 0.000000e+00
1.582278e+00 0.000000e+00 0.000000e+00
1.613924e+00 0.000000e+00 0.000000e+00
1.645570e+00 0.000000e+00 0.000000e+00
1.677215e+00 0.000000e+00 0.000000e+00
1.708861e+00 0.000000e+00 0.000000e+00
1.740506e+00 0.000000e+00 0.000000e+00
1.772152e+00 0.000000e+00 0.000000e+00
1.803797e+00 0.000000e+00 0.000000e+00
1.835443e+00 0.000000e+00 0.000000e+00
1.867089e+00 0.000000e+00 0.000000e+00
1.898734e+00 0.000000e+00 0.000000e+00
1.930380e+00 0.000000e+00 0.000000e+00
1.962025e+00 0.000000e+00 0.000000e+00
1.993671e+00 0.000000e+00 0.000000e+00
2.025316e+00 0.000000e+00 0.000000e+00
2.056962e+00 0.000000e+00 0.000000e+00
2.088608e+00 0.000000e+00 0.000000e+00
2.120253e+00 0.000000e+00 0.000000e+00
2.151899e+00 0.000000e+00 0.000000e+00
2.183544e+00 0.000000e+00 0.000000e+00
2.215190e+00 0.000000e+00 0.000000e+00
2.246835e+00 0.000000e+00 0.000000e+00
2.278481e+00 0.000000e+00 0.000000e+00
2.310127e+00 0.000000e+00 0.000000e+00
2.341772e+00 0.000000e+00 0.000000e+00
2.373418e+00 0.000000e+00 0.000000e+00
2.405063e+00 0.000000e+00 0.000000e+00
2.436709e+00 0.000000e+00 0.000000e+00
2.468354e+00 0.000000e+00 0.000000e+00
2.500000e+00 0.000000e+00 0.000000e+00
2.531646e+00 0.000000e+00 0.000000e+00
2.563291e+00 0.000000e+00 0.000000e+00
2.594937e+00 0.000000e+00 0.000000e+00
2.626582e+00 0.000000e+00 0.000000e+00
2.658228e+00 0.000000e+00 0.000000e+00
2.689873e+00 0.000000e+00 0.000000e+00
2.721519e+00 0.000000e+00 0.000000e+00
2.753165e+00 0.000000e+00 0.000000e+00
2.784810e+00 0.000000e+00 0.000000e+00
2.816456e+00 0.000000e+00 0.000000e+00
2.848101e+00 0.000000e+00 0.000000e+00
2.879747e+00 0.000000e+00 0.000000e+00
2.911392e+00 0.000000e+00 0.000000e+00
2.943038e+00 0.000000e+00 0.000000e+00
2.974684e+00 0.000000e+00 0.000000e+00
3.006329e+00 0.000000e+00 0.000000e+00
3.037975e+00 0.000000e+00 0.000000e+00
3.069620e+00 0.000000e+00 0.000000e+00
3.101266e+00 0.000000e+00 0.000000e+00
3.132911e+00 0.000000e+00 0.000000e+00
3.164557e+00 0.000000e+00 0.000000e+00
3.196203e+00 0.000000e+00 0.000000e+00
3.227848e+00 0.000000e+00 0.000000e+00
3.259494e+00 0.000000e+00 0.000000e+00
3.291139e+00 0.000000e+00 0.000000e+00
3.322785e+00 0.000000e+00 0.000000e+00
3.354430e+00 0.000000e+00 0.000000e+00
3.386076e+00 0.000000e+00 0.000000e+00
3.417722e+00 0.000000e+00 0.000000e+00
3.449367e+00 0.000000e+00 0.000000e+00
3.481013e+00 0.000000e+00 0.000000e+00
3.512658e+00 0.000000e+00 0.000000e+00
3.544304e+00 0.000000e+00 0.000000e+00
3.575949e+00 0.000000e+00 0.000000e+00
3.607595e+00 0.000000e+00 0.000000e+00
3.639241e+00 0.000000e+00 0.000000e+00
3.670886e+00 0.000000e+00 0.000000e+00
3.702532e+00 0.000000e+00 0.000000e+00
3.734177e+00 0.000000e+00 0.000000e+00
3.765823e+00 0.000000e+00 0.000000e+00
3.797468e+00 0.000000e+00 0.000000e+00
3.829114e+00 0.000000e+00 0.000000e+00
3.860759e+00 0.000000e+00 0.000000e+00
3.892405e+00 0.000000e+00 0.000000e+00
3.924051e+00 0.000000e+00 0.000000e+00
3.955696e+00 0.000000e+00 0.000000e+00
3.987342e+00 0.000000e+00 0.000000e+00
4.018987e+00 0.000000e+00 0.000000e+00
4.050633e+00 0.000000e+00 0.000000e+00
4.082278e+00 0.000000e+00 0.000000e+00
4.113924e+00 0.000000e+00 0.000000e+00
4.145570e+00 0.000000e+00 0.000000e+00
4.177215e+00 0.000000e+00 0.000000e+00
4.208861e+00 0.000000e+00 0.000000e+00
4.240506e+00 0.000000e+00 0.000000e+00
4.272152e+00 0.000000e+00 0.000000e+00
4.303797e+00 0.000000e+00 0.000000e+00
4.335443e+00 0.000000e+00 0.000000e+00
4.367089e+00 0.000000e+00 0.000000e+00
4.398734e+00 0.000000e+00 0.000000e+00
4.430380e+00 0.000000e+00 0.000000e+00
4.462025e+00 0.000000e+00 0.000000e+00
4.493671e+00 0.000000e+00 0.000000e+00
4.525316e+00 0.000000e+00 0.000000e+00
4.556962e+00 0.000000e+00 0.000000e+00
4.588608e+00 0.000000e+00 0.000000e+00
4.620253e+00 0.000000e+00 0.000000e+00
4.651899e+00 0.000000e+00 0.000000e+00
4.683544e+00 0.000000e+00 0.000000e+00
4.715190e+00 0.000000e+00 0.000000e+00
4.746835e+00 0.000000e+00 0.000000e+00
4.778481e+00 0.000000e+00 0.000000e+00
4.810127e+00 0.000000e+00 0.000000e+00
4.841772e+00 0.000000e+00 0.000000e+00
4.873418e+00 0.000000e+00 0.000000e+00
4.905063e+00 0.000000e+00 0.000000e+00
4.936709e+00 0.000000e+00 0.000000e+00
4.968354e+00 0.000000e+00 0.000000e+00
5.000000e+00 0.000000e+00 0.000000e+00
0.000000e+00 3.333333e-02 0.000000e+00
3.164557e-02 3.333333e-02 0.000000e+00
6.329114e-02 3.333333e-02 0.000000e+00
9.493671e-02 3.333333e-02 0.000000e+00
1.265823e-01 3.333333e-02 0.000000e+00
1.582278e-01 3.333333e-02 0.000000e+00
1.898734e-01 3.333333e-02 0.000000e+00
2.215190e-01 3.333333e-02 0.000000e+00
2.531646e-01 3.333333e-02 0.000000e+00
2.848101e-01 3.333333e-02 0.000000e+00
3.164557e-01 3.333333e-02 0.000000e+00
3.481013e-01 3.333333e-02 0.000000e+00
3.797468e-01 3.333333e-02 0.000000e+00
4.113924e-01 3.333333e-02 0.000000e+00
4.430380e-01 3.333333e-02 0.000000e+00
4.746835e-01 3.333333e-02 0.000000e+00
5.063291e-01 3.333333e-02 0.000000e+00
5.379747e-01 3.333333e-02 0.000000e+00
5.696203e-01 3.333333e-02 0.000000e+00
6.012658e-01 3.333333e-02 0.000000e+00
6.329114e-01 3.333333e-02 0.000000e+00
6.645570e-01 3.333333e-02 0.000000e+00
6.962025e-01 3.333333e-02 0.000000e+00
7.278481e-01 3.333333e-02 0.000000e+00
7.594937e-01 3.333333e-02 0.000000e+00
7.911392e-01 3.333333e-02 0.000000e+00
8.227848e-01 3.333333e-02 0.000000e+00
8.544304e-01 3.333333e-02 0.000000e+00
8.860759e-01 3.333333e-02 0.000000e+00
9.177215e-01 3.333333e-02 0.000000e+00
9.493671e-01 3.333333e-02 0.000000e+00
9.810127e-01 3.333333e-02 0.000000e+00
1.012658e+00 3.333333e-02 0.000000e+00
1.044304e+00 3.333333e-02 0.000000e+00
1.075949e+00 3.333333e-02 0.000000e+00
1.107595e+00 3.333333e-02 0.000000e+00
1.139241e+00 3.333333e-02 0.000000e+00
1.170886e+00 3.333333e-02 0.000000e+00
1.202532e+00 3.333333e-02 0.000000e+00
1.234177e+00 3.333333e-02 0.000000e+00
1.265823e+00 3.333333e-02 0.000000e+00
1.297468e+00 3.333333e-02 0.000000e+00
1.329114e+00 3.333333e-02 0.000000e+00
1.360759e+00 3.333333e-02 0.000000e+00
1.392405e+00 3.333333e-02 0.000000e+00
1.424051e+00 3.333333e-02 0.000000e+00
1.455696e+00 3.333333e-02 0.000000e+00
1.487342e+00 3.333333e-02 0.000000e+00
1.518987e+00 3.333333e-02 0.000000e+00
1.550633e+00 3.333333e-02 0.000000e+00
1.582278e+00 3.333333e-02 0.000000e+00
1.613924e+00 3.333333e-02 0.000000e+00
1.645570e+00 3.333333e-02 0.000000e+00
1.677215e+00 3.333333e-02 0.000000e+00
1.708861e+00 3.333333e-02 0.000000e+00
1.740506e+00 3.333333e-02 0.000000e+00
1.772152e+00 3.333333e-02 0.000000e+00
1.803797e+00 3.333333e-02 0.000000e+00
1.835443e+00 3.333333e-02 0.000000e+00
1.867089e+00 3.333333e-02 0.000000e+00
1.898734e+00 3.333333e-02 0.000000e+00
1.930380e+00 3.333333e-02 0.000000e+00
1.962025e+00 3.333333e-02 0.000000e+00
1.993671e+00 3.333333e-02 0.000000e+00
2.025316e+00 3.333333e-02 0.000000e+00
2.056962e+00 3.333333e-02 0.000000e+00
2.088608e+00 3.333333e-02 0.000000e+00
2.120253e+00 3.333333e-02 0.000000e+00
2.151899e+00 3.333333e-02 0.000000e+00
2.183544e+00 3.333333e-02 0.000000e+00
2.215190e+00 3.333333e-02 0.000000e+00
2.246835e+00 3.333333e-02 0.000000e+00
2.278481e+00 3.333333e-02 0.000000e+00
2.310127e+00 3.333333e-02 0.000000e+00
2.341772e+00 3.333333e-02 0.000000e+00
2.373418e+00 3.333333e-02 0.000000e+00
2.405063e+00 3.333333e-02 0.000000e+00
2.436709e+00 3.333333e-02 0.000000e+00
2.468354e+00 3.333333e-02 0.000000e+00
2.500000e+00 3.333333e-02 0.000000e+00
2.531646e+00 3.333333e-02 0.000000e+00
2.563291e+00 3.333333e-02 0.000000e+00
2.594937e+00 3.333333e-02 0.000000e+00
2.626582e+00 3.333333e-02 0.000000e+00
2.658228e+00 3.333333e-02 0.000000e+00
2.689873e+00 3.333333e-02 0.000000e+00
2.721519e+00 3.333333e-02 0.000000e+00
2.753165e+00 3.333333e-02 0.000000e+00
2.784810e+00 3.333333e-02 0.000000e+00
2.816456e+00 3.333333e-02 0.000000e+00
2.848101e+00 3.333333e-02 0.000000e+00
2.879747e+00 3.333333e-02 0.000000e+00
[...]
<PointData>
<DataArray Name="Velocity" type="Float64" format="ascii" NumberOfComponents="3">
0.000000e+00 0.000000e+00 0
0.000000e+00 0.000000e+00 0
0.000000e+00 0.000000e+00 0
0.000000e+00 0.000000e+00 0
0.000000e+00 0.000000e+00 0
0.000000e+00 0.000000e+00 0
0.000000e+00 0.000000e+00 0
0.000000e+00 0.000000e+00 0
0.000000e+00 0.000000e+00 0
0.000000e+00 0.000000e+00 0
0.000000e+00 0.000000e+00 0
0.000000e+00 0.000000e+00 0
0.000000e+00 0.000000e+00 0
0.000000e+00 0.000000e+00 0
0.000000e+00 0.000000e+00 0
0.000000e+00 0.000000e+00 0
0.000000e+00 0.000000e+00 0
0.000000e+00 0.000000e+00 0
0.000000e+00 0.000000e+00 0
-3.533714e-17 0.000000e+00 0
0.000000e+00 0.000000e+00 0
0.000000e+00 0.000000e+00 0
0.000000e+00 0.000000e+00 0
4.200578e-17 0.000000e+00 0
0.000000e+00 0.000000e+00 0
0.000000e+00 0.000000e+00 0
0.000000e+00 0.000000e+00 0
-1.952523e-17 0.000000e+00 0
0.000000e+00 0.000000e+00 0
0.000000e+00 0.000000e+00 0
0.000000e+00 0.000000e+00 0
-8.040215e-18 0.000000e+00 0
0.000000e+00 0.000000e+00 0
0.000000e+00 0.000000e+00 0
0.000000e+00 0.000000e+00 0
0.000000e+00 0.000000e+00 0
0.000000e+00 0.000000e+00 0
0.000000e+00 0.000000e+00 0
-1.860171e-17 0.000000e+00 0
0.000000e+00 0.000000e+00 0
0.000000e+00 0.000000e+00 0
0.000000e+00 0.000000e+00 0
0.000000e+00 0.000000e+00 0
0.000000e+00 0.000000e+00 0
0.000000e+00 0.000000e+00 0
0.000000e+00 0.000000e+00 0
-1.794174e-17 0.000000e+00 0
0.000000e+00 0.000000e+00 0
0.000000e+00 0.000000e+00 0
0.000000e+00 0.000000e+00 0
0.000000e+00 0.000000e+00 0
0.000000e+00 0.000000e+00 0
0.000000e+00 0.000000e+00 0
0.000000e+00 0.000000e+00 0
1.782131e-17 0.000000e+00 0
0.000000e+00 0.000000e+00 0
0.000000e+00 0.000000e+00 0
0.000000e+00 0.000000e+00 0
0.000000e+00 0.000000e+00 0
0.000000e+00 0.000000e+00 0
0.000000e+00 0.000000e+00 0
0.000000e+00 0.000000e+00 0
1.974128e-17 0.000000e+00 0
0.000000e+00 0.000000e+00 0
0.000000e+00 0.000000e+00 0
0.000000e+00 0.000000e+00 0
0.000000e+00 0.000000e+00 0
0.000000e+00 0.000000e+00 0
0.000000e+00 0.000000e+00 0
0.000000e+00 0.000000e+00 0
0.000000e+00 0.000000e+00 0
0.000000e+00 0.000000e+00 0
0.000000e+00 0.000000e+00 0
0.000000e+00 0.000000e+00 0
0.000000e+00 0.000000e+00 0
0.000000e+00 0.000000e+00 0
0.000000e+00 0.000000e+00 0
0.000000e+00 0.000000e+00 0
0.000000e+00 0.000000e+00 0
0.000000e+00 0.000000e+00 0
0.000000e+00 0.000000e+00 0
0.000000e+00 0.000000e+00 0
0.000000e+00 0.000000e+00 0
0.000000e+00 0.000000e+00 0
0.000000e+00 0.000000e+00 0
0.000000e+00 0.000000e+00 0
0.000000e+00 0.000000e+00 0
0.000000e+00 0.000000e+00 0
0.000000e+00 0.000000e+00 0
0.000000e+00 0.000000e+00 0
0.000000e+00 0.000000e+00 0
0.000000e+00 0.000000e+00 0
0.000000e+00 0.000000e+00 0
0.000000e+00 0.000000e+00 0
0.000000e+00 0.000000e+00 0
0.000000e+00 0.000000e+00 0
0.000000e+00 0.000000e+00 0
0.000000e+00 0.000000e+00 0
0.000000e+00 0.000000e+00 0
0.000000e+00 0.000000e+00 0
0.000000e+00 0.000000e+00 0
0.000000e+00 0.000000e+00 0
0.000000e+00 0.000000e+00 0
0.000000e+00 0.000000e+00 0
0.000000e+00 0.000000e+00 0
0.000000e+00 0.000000e+00 0
0.000000e+00 0.000000e+00 0
0.000000e+00 0.000000e+00 0
0.000000e+00 0.000000e+00 0
0.000000e+00 0.000000e+00 0
0.000000e+00 0.000000e+00 0
0.000000e+00 0.000000e+00 0
0.000000e+00 0.000000e+00 0
0.000000e+00 0.000000e+00 0
0.000000e+00 0.000000e+00 0
0.000000e+00 0.000000e+00 0
0.000000e+00 0.000000e+00 0
0.000000e+00 0.000000e+00 0
0.000000e+00 0.000000e+00 0
0.000000e+00 0.000000e+00 0
0.000000e+00 0.000000e+00 0
0.000000e+00 0.000000e+00 0
0.000000e+00 0.000000e+00 0
0.000000e+00 0.000000e+00 0
0.000000e+00 0.000000e+00 0
0.000000e+00 0.000000e+00 0
0.000000e+00 0.000000e+00 0
0.000000e+00 0.000000e+00 0
0.000000e+00 0.000000e+00 0
0.000000e+00 0.000000e+00 0
0.000000e+00 0.000000e+00 0
0.000000e+00 0.000000e+00 0
0.000000e+00 0.000000e+00 0
0.000000e+00 0.000000e+00 0
0.000000e+00 0.000000e+00 0
0.000000e+00 0.000000e+00 0
0.000000e+00 0.000000e+00 0
0.000000e+00 0.000000e+00 0
0.000000e+00 0.000000e+00 0
0.000000e+00 0.000000e+00 0
0.000000e+00 0.000000e+00 0
0.000000e+00 0.000000e+00 0
0.000000e+00 0.000000e+00 0
0.000000e+00 0.000000e+00 0
0.000000e+00 0.000000e+00 0
0.000000e+00 0.000000e+00 0
0.000000e+00 0.000000e+00 0
0.000000e+00 0.000000e+00 0
0.000000e+00 0.000000e+00 0
0.000000e+00 0.000000e+00 0
0.000000e+00 0.000000e+00 0
0.000000e+00 0.000000e+00 0
0.000000e+00 0.000000e+00 0
0.000000e+00 0.000000e+00 0
0.000000e+00 0.000000e+00 0
0.000000e+00 0.000000e+00 0
0.000000e+00 0.000000e+00 0
0.000000e+00 0.000000e+00 0
0.000000e+00 0.000000e+00 0
1.775313e+00 -4.200472e-05 0
1.775313e+00 -4.466488e-05 0
1.775349e+00 -3.924588e-05 0
1.775372e+00 -1.656083e-05 0
1.775369e+00 1.684586e-05 0
1.775331e+00 6.018137e-05 0
1.775246e+00 1.159104e-04 0
1.775102e+00 1.858234e-04 0
1.774883e+00 2.716895e-04 0
1.774575e+00 3.754493e-04 0
1.774159e+00 4.993057e-04 0
1.773615e+00 6.457440e-04 0
1.772919e+00 8.176050e-04 0
1.772047e+00 1.018110e-03 0
1.770969e+00 1.250880e-03 0
1.769653e+00 1.520032e-03 0
1.768063e+00 1.830241e-03 0
1.766155e+00 2.186916e-03 0
1.763885e+00 2.596421e-03 0
1.761197e+00 3.066305e-03 0
1.758031e+00 3.605630e-03 0
1.754316e+00 4.225293e-03 0
1.749968e+00 4.938290e-03 0
1.744893e+00 5.759817e-03 0
1.738979e+00 6.706836e-03 0
1.732096e+00 7.796623e-03 0
1.724097e+00 9.042866e-03 0
1.714823e+00 1.044692e-02 0
1.704116e+00 1.198074e-02 0
1.691859e+00 1.355719e-02 0
1.678050e+00 1.498834e-02 0
1.662932e+00 1.595372e-02 0
1.647166e+00 1.604746e-02 0
1.631906e+00 1.500701e-02 0
1.618427e+00 1.300933e-02 0
1.607386e+00 1.056263e-02 0
1.598826e+00 8.133559e-03 0
1.592457e+00 5.992671e-03 0
1.587876e+00 4.236206e-03 0
1.584692e+00 2.856357e-03 0
1.582571e+00 1.797873e-03 0
1.581249e+00 9.876950e-04 0
1.580531e+00 3.115631e-04 0
1.580268e+00 -2.975919e-04 0
1.580361e+00 -7.984188e-04 0
1.580722e+00 -1.163917e-03 0
1.581269e+00 -1.408541e-03 0
1.581931e+00 -1.549617e-03 0
1.582652e+00 -1.604706e-03 0
1.583383e+00 -1.590142e-03 0
1.584087e+00 -1.520427e-03 0
1.584732e+00 -1.408074e-03 0
1.585297e+00 -1.263688e-03 0
1.585764e+00 -1.096124e-03 0
1.586121e+00 -9.125687e-04 0
1.586361e+00 -7.181494e-04 0
1.586480e+00 -5.160218e-04 0
1.586485e+00 -3.135913e-04 0
1.586390e+00 -1.304847e-04 0
1.586205e+00 6.632649e-06 0
1.585937e+00 1.036760e-04 0
1.585593e+00 1.852081e-04 0
1.585179e+00 2.584519e-04 0
1.584701e+00 3.259534e-04 0
1.584163e+00 3.888304e-04 0
1.583568e+00 4.476996e-04 0
1.582920e+00 5.029646e-04 0
1.582222e+00 5.549052e-04 0
1.581477e+00 6.037144e-04 0
1.580688e+00 6.495317e-04 0
1.579857e+00 6.924808e-04 0
1.578987e+00 7.326987e-04 0
1.578080e+00 7.703414e-04 0
1.577138e+00 8.055677e-04 0
1.576165e+00 8.385155e-04 0
1.575161e+00 8.692916e-04 0
1.574129e+00 8.979798e-04 0
1.573070e+00 9.246602e-04 0
1.571987e+00 9.494248e-04 0
1.570881e+00 9.723781e-04 0
1.569753e+00 9.936282e-04 0
1.568606e+00 1.013274e-03 0
1.567440e+00 1.031403e-03 0
1.566257e+00 1.048089e-03 0
1.565059e+00 1.063400e-03 0
1.563846e+00 1.077400e-03 0
1.562619e+00 1.090153e-03 0
1.561381e+00 1.101721e-03 0
1.560131e+00 1.112170e-03 0
1.558871e+00 1.121567e-03 0
1.557602e+00 1.129977e-03 0
1.556324e+00 1.137456e-03 0
1.555039e+00 1.144049e-03 0
1.553747e+00 1.149794e-03 0
1.552449e+00 1.154727e-03 0
1.551146e+00 1.158889e-03 0
1.549838e+00 1.162325e-03 0
1.548527e+00 1.165083e-03 0
1.547212e+00 1.167206e-03 0
1.545894e+00 1.168735e-03 0
1.544574e+00 1.169703e-03 0
1.543253e+00 1.170141e-03 0
1.541930e+00 1.170068e-03 0
1.540607e+00 1.169503e-03 0
1.539283e+00 1.168462e-03 0
1.537959e+00 1.166967e-03 0
1.536636e+00 1.165046e-03 0
1.535314e+00 1.162727e-03 0
1.533993e+00 1.160036e-03 0
1.532674e+00 1.156989e-03 0
1.531357e+00 1.153599e-03 0
1.530042e+00 1.149873e-03 0
1.528730e+00 1.145823e-03 0
1.527420e+00 1.141463e-03 0
1.526114e+00 1.136808e-03 0
1.524812e+00 1.131873e-03 0
1.523513e+00 1.126669e-03 0
1.522218e+00 1.121207e-03 0
1.520927e+00 1.115497e-03 0
1.519641e+00 1.109546e-03 0
1.518359e+00 1.103361e-03 0
1.517082e+00 1.096948e-03 0
1.515811e+00 1.090312e-03 0
1.514545e+00 1.083459e-03 0
1.513284e+00 1.076393e-03 0
1.512029e+00 1.069120e-03 0
1.510780e+00 1.061643e-03 0
1.509537e+00 1.053964e-03 0
1.508301e+00 1.046084e-03 0
1.507071e+00 1.038005e-03 0
1.505848e+00 1.029726e-03 0
1.504632e+00 1.021249e-03 0
1.503423e+00 1.012576e-03 0
1.502221e+00 1.003707e-03 0
1.501027e+00 9.946397e-04 0
1.499841e+00 9.853735e-04 0
1.498662e+00 9.759061e-04 0
1.497492e+00 9.662344e-04 0
1.496330e+00 9.563548e-04 0
1.495177e+00 9.462626e-04 0
1.494032e+00 9.359522e-04 0
1.492896e+00 9.254160e-04 0
1.491770e+00 9.146432e-04 0
1.490653e+00 9.036186e-04 0
1.489546e+00 8.923203e-04 0
1.488448e+00 8.807170e-04 0
1.487362e+00 8.687642e-04 0
1.486285e+00 8.563959e-04 0
1.485220e+00 8.435136e-04 0
1.484167e+00 8.299711e-04 0
1.483126e+00 8.155400e-04 0
1.482098e+00 7.998624e-04 0
1.481085e+00 7.823391e-04 0
1.480089e+00 7.618932e-04 0
1.479113e+00 7.361891e-04 0
1.478162e+00 7.008630e-04 0
1.477245e+00 6.146673e-04 0
1.476376e+00 7.024081e-04 0
1.476376e+00 8.555953e-04 0
2.781191e+00 -8.319699e-05 0
2.781191e+00 -8.024930e-05 0
2.781222e+00 -6.206615e-05 0
2.781241e+00 -2.073644e-05 0
2.781241e+00 4.262306e-05 0
2.781209e+00 1.292549e-04 0
2.781136e+00 2.414444e-04 0
2.781011e+00 3.821216e-04 0
2.780820e+00 5.546962e-04 0
2.780550e+00 7.631053e-04 0
2.780184e+00 1.011817e-03 0
2.779704e+00 1.305899e-03 0
2.779090e+00 1.651080e-03 0
2.778319e+00 2.053781e-03 0
2.777365e+00 2.521251e-03 0
2.776200e+00 3.061689e-03 0
2.774790e+00 3.684469e-03 0
2.773100e+00 4.400484e-03 0
2.771086e+00 5.222531e-03 0
2.768702e+00 6.165815e-03 0
2.765893e+00 7.248594e-03 0
2.762598e+00 8.492835e-03 0
2.758743e+00 9.924827e-03 0
2.754243e+00 1.157555e-02 0
2.748998e+00 1.348025e-02 0
2.742888e+00 1.567593e-02 0
2.735772e+00 1.819452e-02 0
2.727483e+00 2.104661e-02 0
2.717830e+00 2.418776e-02 0
2.706614e+00 2.745534e-02 0
2.693683e+00 3.046931e-02 0
2.679082e+00 3.253113e-02 0
2.663384e+00 3.268139e-02 0
2.648143e+00 3.027179e-02 0
2.635376e+00 2.582839e-02 0
2.625605e+00 2.064761e-02 0
2.618473e+00 1.572547e-02 0
2.613396e+00 1.153362e-02 0
2.609840e+00 8.178837e-03 0
2.607393e+00 5.588368e-03 0
2.605747e+00 3.626248e-03 0
2.604680e+00 2.148260e-03 0
2.604024e+00 1.034160e-03 0
2.603608e+00 1.795926e-04 0
2.603314e+00 -4.781579e-04 0
2.603099e+00 -9.559105e-04 0
2.602931e+00 -1.274268e-03 0
2.602787e+00 -1.457546e-03 0
2.602651e+00 -1.529290e-03 0
2.602508e+00 -1.510770e-03 0
2.602350e+00 -1.420581e-03 0
2.602167e+00 -1.274685e-03 0
2.601953e+00 -1.086666e-03 0
2.601703e+00 -8.681043e-04 0
2.601414e+00 -6.290719e-04 0
2.601086e+00 -3.777360e-04 0
2.600727e+00 -1.305402e-04 0
2.600341e+00 9.412932e-05 0
2.599928e+00 2.947020e-04 0
2.599480e+00 4.777866e-04 0
2.598975e+00 6.453208e-04 0
2.598409e+00 7.981238e-04 0
2.597785e+00 9.391556e-04 0
2.597106e+00 1.070509e-03 0
2.596374e+00 1.193514e-03 0
2.595592e+00 1.309055e-03 0
2.594763e+00 1.417756e-03 0
2.593890e+00 1.520073e-03 0
2.592975e+00 1.616356e-03 0
2.592021e+00 1.706896e-03 0
2.591029e+00 1.791967e-03 0
2.590002e+00 1.871845e-03 0
2.588942e+00 1.946808e-03 0
2.587851e+00 2.017118e-03 0
2.586730e+00 2.083006e-03 0
2.585583e+00 2.144673e-03 0
2.584409e+00 2.202304e-03 0
2.583211e+00 2.256083e-03 0
2.581990e+00 2.306203e-03 0
2.580748e+00 2.352860e-03 0
2.579487e+00 2.396240e-03 0
2.578206e+00 2.436517e-03 0
2.576909e+00 2.473849e-03 0
2.575595e+00 2.508383e-03 0
2.574266e+00 2.540256e-03 0
2.572923e+00 2.569601e-03 0
2.571567e+00 2.596545e-03 0
2.570199e+00 2.621214e-03 0
2.568820e+00 2.643730e-03 0
2.567431e+00 2.664216e-03 0
2.566032e+00 2.682783e-03 0
2.564624e+00 2.699532e-03 0
2.563209e+00 2.714551e-03 0
2.561786e+00 2.727923e-03 0
2.560357e+00 2.739729e-03 0
2.558921e+00 2.750053e-03 0
2.557481e+00 2.758980e-03 0
2.556035e+00 2.766593e-03 0
2.554585e+00 2.772967e-03 0
2.553131e+00 2.778171e-03 0
2.551674e+00 2.782267e-03 0
2.550214e+00 2.785308e-03 0
2.548752e+00 2.787338e-03 0
2.547287e+00 2.788401e-03 0
2.545821e+00 2.788540e-03 0
2.544353e+00 2.787801e-03 0
2.542885e+00 2.786233e-03 0
2.541416e+00 2.783880e-03 0
2.539947e+00 2.780780e-03 0
2.538478e+00 2.776962e-03 0
2.537009e+00 2.772452e-03 0
2.535541e+00 2.767273e-03 0
2.534074e+00 2.761454e-03 0
2.532608e+00 2.755022e-03 0
2.531143e+00 2.748002e-03 0
2.529681e+00 2.740421e-03 0
2.528220e+00 2.732297e-03 0
2.526761e+00 2.723652e-03 0
2.525305e+00 2.714500e-03 0
2.523851e+00 2.704857e-03 0
2.522400e+00 2.694736e-03 0
2.520952e+00 2.684150e-03 0
2.519507e+00 2.673110e-03 0
2.518066e+00 2.661624e-03 0
2.516628e+00 2.649703e-03 0
2.515194e+00 2.637354e-03 0
2.513765e+00 2.624582e-03 0
2.512339e+00 2.611391e-03 0
2.510918e+00 2.597783e-03 0
2.509501e+00 2.583760e-03 0
2.508089e+00 2.569324e-03 0
2.506682e+00 2.554476e-03 0
2.505280e+00 2.539216e-03 0
2.503883e+00 2.523543e-03 0
2.502492e+00 2.507455e-03 0
2.501106e+00 2.490948e-03 0
2.499727e+00 2.474016e-03 0
2.498353e+00 2.456654e-03 0
2.496986e+00 2.438855e-03 0
2.495625e+00 2.420610e-03 0
2.494271e+00 2.401905e-03 0
2.492924e+00 2.382725e-03 0
2.491584e+00 2.363048e-03 0
2.490251e+00 2.342843e-03 0
2.488926e+00 2.322065e-03 0
2.487608e+00 2.300653e-03 0
2.486299e+00 2.278517e-03 0
2.484998e+00 2.255525e-03 0
2.483706e+00 2.231486e-03 0
2.482424e+00 2.206109e-03 0
2.481151e+00 2.178954e-03 0
2.479889e+00 2.149335e-03 0
2.478638e+00 2.116139e-03 0
2.477400e+00 2.077485e-03 0
2.476177e+00 2.030079e-03 0
2.474970e+00 1.967835e-03 0
2.473780e+00 1.881308e-03 0
2.472571e+00 1.863594e-03 0
2.472571e+00 1.896578e-03 0
3.321269e+00 -1.265551e-04 0
3.321269e+00 -1.200481e-04 0
3.321307e+00 -9.263532e-05 0
3.321337e+00 -3.610894e-05 0
3.321351e+00 5.071646e-05 0
3.321344e+00 1.700149e-04 0
3.321308e+00 3.248507e-04 0
3.321235e+00 5.191626e-04 0
3.321115e+00 7.576996e-04 0
3.320938e+00 1.045962e-03 0
3.320692e+00 1.390224e-03 0
3.320364e+00 1.797600e-03 0
3.319938e+00 2.276048e-03 0
3.319398e+00 2.834479e-03 0
3.318724e+00 3.482891e-03 0
3.317895e+00 4.232550e-03 0
3.316887e+00 5.096353e-03 0
3.315673e+00 6.089235e-03 0
3.314223e+00 7.228697e-03 0
3.312503e+00 8.535579e-03 0
3.310475e+00 1.003496e-02 0
3.308096e+00 1.175715e-02 0
3.305313e+00 1.373897e-02 0
3.302068e+00 1.602484e-02 0
3.298286e+00 1.866760e-02 0
3.293877e+00 2.172785e-02 0
3.288721e+00 2.526942e-02 0
3.282655e+00 2.934543e-02 0
3.275441e+00 3.396185e-02 0
3.266727e+00 3.899138e-02 0
3.256005e+00 4.398906e-02 0
3.242693e+00 4.786900e-02 0
3.226714e+00 4.863678e-02 0
3.210499e+00 4.450923e-02 0
3.198830e+00 3.674972e-02 0
3.191462e+00 2.836746e-02 0
3.186987e+00 2.099397e-02 0
3.184264e+00 1.508543e-02 0
3.182585e+00 1.055946e-02 0
3.181542e+00 7.168695e-03 0
3.180901e+00 4.655718e-03 0
3.180518e+00 2.802523e-03 0
3.180295e+00 1.440865e-03 0
3.180163e+00 4.499187e-04 0
3.180057e+00 -2.626133e-04 0
3.179945e+00 -7.600418e-04 0
3.179812e+00 -1.079982e-03 0
3.179655e+00 -1.254532e-03 0
3.179471e+00 -1.311129e-03 0
3.179260e+00 -1.273143e-03 0
3.179023e+00 -1.160411e-03 0
3.178760e+00 -9.896997e-04 0
3.178472e+00 -7.751377e-04 0
3.178159e+00 -5.288451e-04 0
3.177823e+00 -2.626830e-04 0
3.177469e+00 6.029128e-06 0
3.177097e+00 2.689084e-04 0
3.176698e+00 5.272006e-04 0
3.176263e+00 7.759569e-04 0
3.175786e+00 1.011126e-03 0
3.175267e+00 1.231780e-03 0
3.174705e+00 1.438115e-03 0
3.174099e+00 1.631343e-03 0
3.173452e+00 1.812747e-03 0
3.172764e+00 1.983400e-03 0
3.172038e+00 2.144148e-03 0
3.171275e+00 2.295657e-03 0
3.170478e+00 2.438456e-03 0
3.169649e+00 2.572983e-03 0
3.168789e+00 2.699635e-03 0
3.167899e+00 2.818794e-03 0
3.166982e+00 2.930839e-03 0
3.166039e+00 3.036134e-03 0
3.165072e+00 3.135017e-03 0
3.164081e+00 3.227789e-03 0
3.163069e+00 3.314730e-03 0
3.162036e+00 3.396106e-03 0
3.160985e+00 3.472187e-03 0
3.159915e+00 3.543245e-03 0
3.158828e+00 3.609542e-03 0
3.157725e+00 3.671326e-03 0
3.156608e+00 3.728828e-03 0
3.155476e+00 3.782263e-03 0
3.154332e+00 3.831834e-03 0
3.153175e+00 3.877735e-03 0
3.152007e+00 3.920150e-03 0
3.150828e+00 3.959258e-03 0
3.149640e+00 3.995234e-03 0
3.148442e+00 4.028247e-03 0
3.147235e+00 4.058460e-03 0
3.146021e+00 4.086021e-03 0
3.144799e+00 4.111064e-03 0
3.143571e+00 4.133712e-03 0
3.142336e+00 4.154084e-03 0
3.141096e+00 4.172297e-03 0
3.139850e+00 4.188468e-03 0
3.138600e+00 4.202712e-03 0
3.137345e+00 4.215136e-03 0
3.136086e+00 4.225841e-03 0
3.134824e+00 4.234918e-03 0
3.133558e+00 4.242449e-03 0
3.132289e+00 4.248506e-03 0
3.131018e+00 4.253154e-03 0
3.129745e+00 4.256457e-03 0
3.128470e+00 4.258481e-03 0
3.127193e+00 4.259290e-03 0
3.125915e+00 4.258950e-03 0
3.124635e+00 4.257516e-03 0
3.123355e+00 4.255034e-03 0
3.122074e+00 4.251545e-03 0
3.120793e+00 4.247086e-03 0
3.119512e+00 4.241694e-03 0
3.118231e+00 4.235410e-03 0
3.116950e+00 4.228271e-03 0
3.115669e+00 4.220311e-03 0
3.114389e+00 4.211561e-03 0
3.113110e+00 4.202050e-03 0
3.111833e+00 4.191802e-03 0
3.110556e+00 4.180840e-03 0
3.109280e+00 4.169183e-03 0
3.108006e+00 4.156852e-03 0
3.106734e+00 4.143862e-03 0
3.105464e+00 4.130228e-03 0
3.104196e+00 4.115965e-03 0
3.102929e+00 4.101082e-03 0
3.101666e+00 4.085591e-03 0
3.100404e+00 4.069497e-03 0
3.099145e+00 4.052804e-03 0
3.097889e+00 4.035517e-03 0
3.096636e+00 4.017638e-03 0
3.095386e+00 3.999168e-03 0
3.094139e+00 3.980109e-03 0
3.092896e+00 3.960461e-03 0
3.091656e+00 3.940220e-03 0
3.090420e+00 3.919381e-03 0
3.089187e+00 3.897940e-03 0
3.087958e+00 3.875889e-03 0
3.086734e+00 3.853221e-03 0
3.085514e+00 3.829925e-03 0
3.084298e+00 3.805987e-03 0
3.083087e+00 3.781394e-03 0
3.081880e+00 3.756121e-03 0
3.080679e+00 3.730139e-03 0
3.079483e+00 3.703409e-03 0
3.078291e+00 3.675873e-03 0
3.077106e+00 3.647453e-03 0
3.075926e+00 3.618033e-03 0
3.074752e+00 3.587449e-03 0
3.073584e+00 3.555463e-03 0
3.072422e+00 3.521721e-03 0
3.071267e+00 3.485702e-03 0
3.070118e+00 3.446623e-03 0
3.068977e+00 3.403302e-03 0
3.067843e+00 3.353960e-03 0
3.066715e+00 3.296011e-03 0
3.065593e+00 3.226188e-03 0
3.064470e+00 3.141377e-03 0
3.063337e+00 3.060767e-03 0
3.063337e+00 3.026652e-03 0
3.615846e+00 -1.751139e-04 0
3.615846e+00 -1.666389e-04 0
3.615893e+00 -1.334959e-04 0
3.615934e+00 -6.703611e-05 0
3.615967e+00 3.477127e-05 0
3.615986e+00 1.747670e-04 0
3.615988e+00 3.568487e-04 0
3.615968e+00 5.858266e-04 0
3.615918e+00 8.674549e-04 0
3.615833e+00 1.208418e-03 0
3.615704e+00 1.616356e-03 0
3.615521e+00 2.099836e-03 0
3.615274e+00 2.668405e-03 0
3.614951e+00 3.332675e-03 0
3.614539e+00 4.104437e-03 0
3.614023e+00 4.996937e-03 0
3.613387e+00 6.025217e-03 0
3.612613e+00 7.206545e-03 0
3.611682e+00 8.561123e-03 0
3.610573e+00 1.011296e-02 0
3.609263e+00 1.189096e-02 0
3.607725e+00 1.393037e-02 0
3.605931e+00 1.627463e-02 0
3.603847e+00 1.897780e-02 0
3.601430e+00 2.210783e-02 0
3.598625e+00 2.575054e-02 0
3.595347e+00 3.001453e-02 0
3.591463e+00 3.503474e-02 0
3.586727e+00 4.096567e-02 0
3.580665e+00 4.792827e-02 0
3.572317e+00 5.578468e-02 0
3.559831e+00 6.338437e-02 0
3.540349e+00 6.659281e-02 0
3.517446e+00 5.964381e-02 0
3.506599e+00 4.588094e-02 0
3.502690e+00 3.312206e-02 0
3.501732e+00 2.330761e-02 0
3.501854e+00 1.617023e-02 0
3.502301e+00 1.104534e-02 0
3.502792e+00 7.361736e-03 0
3.503235e+00 4.705100e-03 0
3.503605e+00 2.787141e-03 0
3.503894e+00 1.408344e-03 0
3.504101e+00 4.300558e-04 0
3.504232e+00 -2.481412e-04 0
3.504286e+00 -6.981675e-04 0
3.504268e+00 -9.691391e-04 0
3.504187e+00 -1.097792e-03 0
3.504050e+00 -1.113071e-03 0
3.503867e+00 -1.038490e-03 0
3.503644e+00 -8.934817e-04 0
3.503388e+00 -6.942066e-04 0
3.503102e+00 -4.537755e-04 0
3.502791e+00 -1.853032e-04 0
3.502460e+00 9.732254e-05 0
3.502108e+00 3.876659e-04 0
3.501729e+00 6.816607e-04 0
3.501323e+00 9.724856e-04 0
3.500889e+00 1.255221e-03 0
3.500425e+00 1.526423e-03 0
3.499931e+00 1.784384e-03 0
3.499406e+00 2.028569e-03 0
3.498849e+00 2.259257e-03 0
3.498262e+00 2.477081e-03 0
3.497645e+00 2.682757e-03 0
3.497000e+00 2.876961e-03 0
3.496327e+00 3.060291e-03 0
3.495629e+00 3.233271e-03 0
3.494906e+00 3.396376e-03 0
3.494159e+00 3.550065e-03 0
3.493391e+00 3.694791e-03 0
3.492602e+00 3.830998e-03 0