<?xml version="1.0"?>
<VTKFile type="StructuredGrid">
<StructuredGrid WholeExtent="0 158 0 30 0 0 ">
<Piece Extent="0 158 0 30 0 0 ">
<Points>
<DataArray type="Float64" format="ascii" NumberOfComponents="3">
0.000000e+00 0.000000e+00 0.000000e+00
3.164557e-02 0.000000e+00 0.000000e+00
6.329114e-02 0.000000e+00 0.000000e+00
9.493671e-02 0.000000e+00 0.000000e+00
1.265823e-01 0.000000e+00 0.000000e+00
1.582278e-01 0.000000e+00 0.000000e+00
1.898734e-01 0.000000e+00 0.000000e+00
2.215190e-01 0.000000e+00 0.000000e+00
2.531646e-01 0.000000e+00 0.000000e+00
2.848101e-01 0.000000e+00 0.000000e+00
3.164557e-01 0.000000e+00 0.000000e+00
3.481013e-01 0.000000e+00 0.000000e+00
3.797468e-01 0.000000e+00 0.000000e+00
4.113924e-01 0.000000e+00 0.000000e+00
4.430380e-01 0.000000e+00 0.000000e+00
4.746835e-01 0.000000e+00 0.000000e+00
5.063291e-01 0.000000e+00 0.000000e+00
5.379747e-01 0.000000e+00 0.000000e+00
5.696203e-01 0.000000e+00 0.000000e+00
6.012658e-01 0.000000e+00 0.000000e+00
6.329114e-01 0.000000e+00 0.000000e+00
6.645570e-01 0.000000e+00 0.000000e+00
6.962025e-01 0.000000e+00 0.000000e+00
7.278481e-01 0.000000e+00 0.000000e+00
7.594937e-01 0.000000e+00 0.000000e+00
7.911392e-01 0.000000e+00 0.000000e+00
8.227848e-01 0.000000e+00 0.000000e+00
8.544304e-01 0.000000e+00 0.000000e+00
8.860759e-01 0.000000e+00 0.000000e+00
9.177215e-01 0.000000e+00 0.000000e+00
9.493671e-01 0.000000e+00 0.000000e+00
9.810127e-01 0.000000e+00 0.000000e+00
1.012658e+00 0.000000e+00 0.000000e+00
1.044304e+00 0.000000e+00 0.000000e+00
1.075949e+00 0.000000e+00 0.000000e+00
1.107595e+00 0.000000e+00 0.000000e+00
1.139241e+00 0.000000e+00 0.000000e+00
1.170886e+00 0.000000e+00 0.000000e+00
1.202532e+00 0.000000e+00 0.000000e+00
1.234177e+00 0.000000e+00 0.000000e+00
1.265823e+00 0.000000e+00 0.000000e+00
1.297468e+00 0.000000e+00 0.000000e+00
1.329114e+00 0.000000e+00 0.000000e+00
1.360759e+00 0.000000e+00 0.000000e+00
1.392405e+00 0.000000e+00 0.000000e+00
1.424051e+00 0.000000e+00 0.000000e+00
1.455696e+00 0.000000e+00 0.000000e+00
1.487342e+00 0.000000e+00 0.000000e+00
1.518987e+00 0.000000e+00 0.000000e+00
1.550633e+00 0.000000e+00 0.000000e+00
1.582278e+00 0.000000e+00 0.000000e+00
1.613924e+00 0.000000e+00 0.000000e+00
1.645570e+00 0.000000e+00 0.000000e+00
1.677215e+00 0.000000e+00 0.000000e+00
1.708861e+00 0.000000e+00 0.000000e+00
1.740506e+00 0.000000e+00 0.000000e+00
1.772152e+00 0.000000e+00 0.000000e+00
1.803797e+00 0.000000e+00 0.000000e+00
1.835443e+00 0.000000e+00 0.000000e+00
1.867089e+00 0.000000e+00 0.000000e+00
1.898734e+00 0.000000e+00 0.000000e+00
1.930380e+00 0.000000e+00 0.000000e+00
1.962025e+00 0.000000e+00 0.000000e+00
1.993671e+00 0.000000e+00 0.000000e+00
2.025316e+00 0.000000e+00 0.000000e+00
2.056962e+00 0.000000e+00 0.000000e+00
2.088608e+00 0.000000e+00 0.000000e+00
2.120253e+00 0.000000e+00 0.000000e+00
2.151899e+00 0.000000e+00 0.000000e+00
2.183544e+00 0.000000e+00 0.000000e+00
2.215190e+00 0.000000e+00 0.000000e+00
2.246835e+00 0.000000e+00 0.000000e+00
2.278481e+00 0.000000e+00 0.000000e+00
2.310127e+00 0.000000e+00 0.000000e+00
2.341772e+00 0.000000e+00 0.000000e+00
2.373418e+00 0.000000e+00 0.000000e+00
2.405063e+00 0.000000e+00 0.000000e+00
2.436709e+00 0.000000e+00 0.000000e+00
2.468354e+00 0.000000e+00 0.000000e+00
2.500000e+00 0.000000e+00 0.000000e+00
2.531646e+00 0.000000e+00 0.000000e+00
2.563291e+00 0.000000e+00 0.000000e+00
2.594937e+00 0.000000e+00 0.000000e+00
2.626582e+00 0.000000e+00 0.000000e+00
2.658228e+00 0.000000e+00 0.000000e+00
2.689873e+00 0.000000e+00 0.000000e+00
2.721519e+00 0.000000e+00 0.000000e+00
2.753165e+00 0.000000e+00 0.000000e+00
2.784810e+00 0.000000e+00 0.000000e+00
2.816456e+00 0.000000e+00 0.000000e+00
2.848101e+00 0.000000e+00 0.000000e+00
2.879747e+00 0.000000e+00 0.000000e+00
2.911392e+00 0.000000e+00 0.000000e+00
2.943038e+00 0.000000e+00 0.000000e+00
2.974684e+00 0.000000e+00 0.000000e+00
3.006329e+00 0.000000e+00 0.000000e+00
3.037975e+00 0.000000e+00 0.000000e+00
3.069620e+00 0.000000e+00 0.000000e+00
3.101266e+00 0.000000e+00 0.000000e+00
3.132911e+00 0.000000e+00 0.000000e+00
3.164557e+00 0.000000e+00 0.000000e+00
3.196203e+00 0.000000e+00 0.000000e+00
3.227848e+00 0.000000e+00 0.000000e+00
3.259494e+00 0.000000e+00 0.000000e+00
3.291139e+00 0.000000e+00 0.000000e+00
3.322785e+00 0.000000e+00 0.000000e+00
3.354430e+00 0.000000e+00 0.000000e+00
3.386076e+00 0.000000e+00 0.000000e+00
3.417722e+00 0.000000e+00 0.000000e+00
3.449367e+00 0.000000e+00 0.000000e+00
3.481013e+00 0.000000e+00 0.000000e+00
3.512658e+00 0.000000e+00 0.000000e+00
3.544304e+00 0.000000e+00 0.000000e+00
3.575949e+00 0.000000e+00 0.000000e+00
3.607595e+00 0.000000e+00 0.000000e+00
3.639241e+00 0.000000e+00 0.000000e+00
3.670886e+00 0.000000e+00 0.000000e+00
3.702532e+00 0.000000e+00 0.000000e+00
3.734177e+00 0.000000e+00 0.000000e+00
3.765823e+00 0.000000e+00 0.000000e+00
3.797468e+00 0.000000e+00 0.000000e+00
3.829114e+00 0.000000e+00 0.000000e+00
3.860759e+00 0.000000e+00 0.000000e+00
3.892405e+00 0.000000e+00 0.000000e+00
3.924051e+00 0.000000e+00 0.000000e+00
3.955696e+00 0.000000e+00 0.000000e+00
3.987342e+00 0.000000e+00 0.000000e+00
4.018987e+00 0.000000e+00 0.000000e+00
4.050633e+00 0.000000e+00 0.000000e+00
4.082278e+00 0.000000e+00 0.000000e+00
4.113924e+00 0.000000e+00 0.000000e+00
4.145570e+00 0.000000e+00 0.000000e+00
4.177215e+00 0.000000e+00 0.000000e+00
4.208861e+00 0.000000e+00 0.000000e+00
4.240506e+00 0.000000e+00 0.000000e+00
4.272152e+00 0.000000e+00 0.000000e+00
4.303797e+00 0.000000e+00 0.000000e+00
4.335443e+00 0.000000e+00 0.000000e+00
4.367089e+00 0.000000e+00 0.000000e+00
4.398734e+00 0.000000e+00 0.000000e+00
4.430380e+00 0.000000e+00 0.000000e+00
4.462025e+00 0.000000e+00 0.000000e+00
4.493671e+00 0.000000e+00 0.000000e+00
4.525316e+00 0.000000e+00 0.000000e+00
4.556962e+00 0.000000e+00 0.000000e+00
4.588608e+00 0.000000e+00 0.000000e+00
4.620253e+00 0.000000e+00 0.000000e+00
4.651899e+00 0.000000e+00 0.000000e+00
4.683544e+00 0.000000e+00 0.000000e+00
4.715190e+00 0.000000e+00 0.000000e+00
4.746835e+00 0.000000e+00 0.000000e+00
4.778481e+00 0.000000e+00 0.000000e+00
4.810127e+00 0.000000e+00 0.000000e+00
4.841772e+00 0.000000e+00 0.000000e+00
4.873418e+00 0.000000e+00 0.000000e+00
4.905063e+00 0.000000e+00 0.000000e+00
4.936709e+00 0.000000e+00 0.000000e+00
4.968354e+00 0.000000e+00 0.000000e+00
5.000000e+00 0.000000e+00 0.000000e+00
0.000000e+00 3.333333e-02 0.000000e+00
3.164557e-02 3.333333e-02 0.000000e+00
6.329114e-02 3.333333e-02 0.000000e+00
9.493671e-02 3.333333e-02 0.000000e+00
1.265823e-01 3.333333e-02 0.000000e+00
1.582278e-01 3.333333e-02 0.000000e+00
1.898734e-01 3.333333e-02 0.000000e+00
2.215190e-01 3.333333e-02 0.000000e+00
2.531646e-01 3.333333e-02 0.000000e+00
2.848101e-01 3.333333e-02 0.000000e+00
3.164557e-01 3.333333e-02 0.000000e+00
3.481013e-01 3.333333e-02 0.000000e+00
3.797468e-01 3.333333e-02 0.000000e+00
4.113924e-01 3.333333e-02 0.000000e+00
4.430380e-01 3.333333e-02 0.000000e+00
4.746835e-01 3.333333e-02 0.000000e+00
5.063291e-01 3.333333e-02 0.000000e+00
5.379747e-01 3.333333e-02 0.000000e+00
5.696203e-01 3.333333e-02 0.000000e+00
6.012658e-01 3.333333e-02 0.000000e+00
6.329114e-01 3.333333e-02 0.000000e+00
6.645570e-01 3.333333e-02 0.000000e+00
6.962025e-01 3.333333e-02 0.000000e+00
7.278481e-01 3.333333e-02 0.000000e+00
7.594937e-01 3.333333e-02 0.000000e+00
7.911392e-01 3.333333e-02 0.000000e+00
8.227848e-01 3.333333e-02 0.000000e+00
8.544304e-01 3.333333e-02 0.000000e+00
8.860759e-01 3.333333e-02 0.000000e+00
9.177215e-01 3.333333e-02 0.000000e+00
9.493671e-01 3.333333e-02 0.000000e+00
9.810127e-01 3.333333e-02 0.000000e+00
1.012658e+00 3.333333e-02 0.000000e+00
1.044304e+00 3.333333e-02 0.000000e+00
1.075949e+00 3.333333e-02 0.000000e+00
1.107595e+00 3.333333e-02 0.000000e+00
1.139241e+00 3.333333e-02 0.000000e+00
1.170886e+00 3.333333e-02 0.000000e+00
1.202532e+00 3.333333e-02 0.000000e+00
1.234177e+00 3.333333e-02 0.000000e+00
1.265823e+00 3.333333e-02 0.000000e+00
1.297468e+00 3.333333e-02 0.000000e+00
1.329114e+00 3.333333e-02 0.000000e+00
1.360759e+00 3.333333e-02 0.000000e+00
1.392405e+00 3.333333e-02 0.000000e+00
1.424051e+00 3.333333e-02 0.000000e+00
1.455696e+00 3.333333e-02 0.000000e+00
1.487342e+00 3.333333e-02 0.000000e+00
1.518987e+00 3.333333e-02 0.000000e+00
1.550633e+00 3.333333e-02 0.000000e+00
1.582278e+00 3.333333e-02 0.000000e+00
1.613924e+00 3.333333e-02 0.000000e+00
1.645570e+00 3.333333e-02 0.000000e+00
1.677215e+00 3.333333e-02 0.000000e+00
1.708861e+00 3.333333e-02 0.000000e+00
1.740506e+00 3.333333e-02 0.000000e+00
1.772152e+00 3.333333e-02 0.000000e+00
1.803797e+00 3.333333e-02 0.000000e+00
1.835443e+00 3.333333e-02 0.000000e+00
1.867089e+00 3.333333e-02 0.000000e+00
1.898734e+00 3.333333e-02 0.000000e+00
1.930380e+00 3.333333e-02 0.000000e+00
1.962025e+00 3.333333e-02 0.000000e+00
1.993671e+00 3.333333e-02 0.000000e+00
2.025316e+00 3.333333e-02 0.000000e+00
2.056962e+00 3.333333e-02 0.000000e+00
2.088608e+00 3.333333e-02 0.000000e+00
2.120253e+00 3.333333e-02 0.000000e+00
2.151899e+00 3.333333e-02 0.000000e+00
2.183544e+00 3.333333e-02 0.000000e+00
2.215190e+00 3.333333e-02 0.000000e+00
2.246835e+00 3.333333e-02 0.000000e+00
2.278481e+00 3.333333e-02 0.000000e+00
2.310127e+00 3.333333e-02 0.000000e+00
2.341772e+00 3.333333e-02 0.000000e+00
2.373418e+00 3.333333e-02 0.000000e+00
2.405063e+00 3.333333e-02 0.000000e+00
2.436709e+00 3.333333e-02 0.000000e+00
2.468354e+00 3.333333e-02 0.000000e+00
2.500000e+00 3.333333e-02 0.000000e+00
2.531646e+00 3.333333e-02 0.000000e+00
2.563291e+00 3.333333e-02 0.000000e+00
2.594937e+00 3.333333e-02 0.000000e+00
2.626582e+00 3.333333e-02 0.000000e+00
2.658228e+00 3.333333e-02 0.000000e+00
2.689873e+00 3.333333e-02 0.000000e+00
2.721519e+00 3.333333e-02 0.000000e+00
2.753165e+00 3.333333e-02 0.000000e+00
2.784810e+00 3.333333e-02 0.000000e+00
2.816456e+00 3.333333e-02 0.000000e+00
2.848101e+00 3.333333e-02 0.000000e+00
2.879747e+00 3.333333e-02 0.000000e+00
[...]
<PointData>
<DataArray Name="Velocity" type="Float64" format="ascii" NumberOfComponents="3">
0.000000e+00 0.000000e+00 0
0.000000e+00 0.000000e+00 0
0.000000e+00 0.000000e+00 0
0.000000e+00 0.000000e+00 0
0.000000e+00 0.000000e+00 0
0.000000e+00 0.000000e+00 0
0.000000e+00 0.000000e+00 0
0.000000e+00 0.000000e+00 0
0.000000e+00 0.000000e+00 0
0.000000e+00 0.000000e+00 0
0.000000e+00 0.000000e+00 0
0.000000e+00 0.000000e+00 0
0.000000e+00 0.000000e+00 0
0.000000e+00 0.000000e+00 0
0.000000e+00 0.000000e+00 0
0.000000e+00 0.000000e+00 0
0.000000e+00 0.000000e+00 0
0.000000e+00 0.000000e+00 0
0.000000e+00 0.000000e+00 0
-1.405226e-20 0.000000e+00 0
0.000000e+00 0.000000e+00 0
0.000000e+00 0.000000e+00 0
0.000000e+00 0.000000e+00 0
-3.269399e-17 0.000000e+00 0
0.000000e+00 0.000000e+00 0
0.000000e+00 0.000000e+00 0
0.000000e+00 0.000000e+00 0
1.877270e-17 0.000000e+00 0
0.000000e+00 0.000000e+00 0
0.000000e+00 0.000000e+00 0
0.000000e+00 0.000000e+00 0
3.359777e-17 0.000000e+00 0
0.000000e+00 0.000000e+00 0
0.000000e+00 0.000000e+00 0
0.000000e+00 0.000000e+00 0
0.000000e+00 0.000000e+00 0
0.000000e+00 0.000000e+00 0
0.000000e+00 0.000000e+00 0
1.624824e-17 0.000000e+00 0
0.000000e+00 0.000000e+00 0
0.000000e+00 0.000000e+00 0
0.000000e+00 0.000000e+00 0
0.000000e+00 0.000000e+00 0
0.000000e+00 0.000000e+00 0
0.000000e+00 0.000000e+00 0
0.000000e+00 0.000000e+00 0
1.508130e-17 0.000000e+00 0
0.000000e+00 0.000000e+00 0
0.000000e+00 0.000000e+00 0
0.000000e+00 0.000000e+00 0
0.000000e+00 0.000000e+00 0
0.000000e+00 0.000000e+00 0
0.000000e+00 0.000000e+00 0
0.000000e+00 0.000000e+00 0
-7.424970e-18 0.000000e+00 0
0.000000e+00 0.000000e+00 0
0.000000e+00 0.000000e+00 0
0.000000e+00 0.000000e+00 0
0.000000e+00 0.000000e+00 0
0.000000e+00 0.000000e+00 0
0.000000e+00 0.000000e+00 0
0.000000e+00 0.000000e+00 0
-6.030520e-18 0.000000e+00 0
0.000000e+00 0.000000e+00 0
0.000000e+00 0.000000e+00 0
0.000000e+00 0.000000e+00 0
0.000000e+00 0.000000e+00 0
0.000000e+00 0.000000e+00 0
0.000000e+00 0.000000e+00 0
0.000000e+00 0.000000e+00 0
0.000000e+00 0.000000e+00 0
0.000000e+00 0.000000e+00 0
0.000000e+00 0.000000e+00 0
0.000000e+00 0.000000e+00 0
0.000000e+00 0.000000e+00 0
0.000000e+00 0.000000e+00 0
0.000000e+00 0.000000e+00 0
0.000000e+00 0.000000e+00 0
0.000000e+00 0.000000e+00 0
0.000000e+00 0.000000e+00 0
0.000000e+00 0.000000e+00 0
0.000000e+00 0.000000e+00 0
0.000000e+00 0.000000e+00 0
0.000000e+00 0.000000e+00 0
0.000000e+00 0.000000e+00 0
0.000000e+00 0.000000e+00 0
0.000000e+00 0.000000e+00 0
0.000000e+00 0.000000e+00 0
0.000000e+00 0.000000e+00 0
0.000000e+00 0.000000e+00 0
0.000000e+00 0.000000e+00 0
0.000000e+00 0.000000e+00 0
0.000000e+00 0.000000e+00 0
0.000000e+00 0.000000e+00 0
0.000000e+00 0.000000e+00 0
0.000000e+00 0.000000e+00 0
0.000000e+00 0.000000e+00 0
0.000000e+00 0.000000e+00 0
0.000000e+00 0.000000e+00 0
0.000000e+00 0.000000e+00 0
0.000000e+00 0.000000e+00 0
0.000000e+00 0.000000e+00 0
0.000000e+00 0.000000e+00 0
0.000000e+00 0.000000e+00 0
0.000000e+00 0.000000e+00 0
0.000000e+00 0.000000e+00 0
0.000000e+00 0.000000e+00 0
0.000000e+00 0.000000e+00 0
0.000000e+00 0.000000e+00 0
0.000000e+00 0.000000e+00 0
0.000000e+00 0.000000e+00 0
0.000000e+00 0.000000e+00 0
0.000000e+00 0.000000e+00 0
0.000000e+00 0.000000e+00 0
0.000000e+00 0.000000e+00 0
0.000000e+00 0.000000e+00 0
0.000000e+00 0.000000e+00 0
0.000000e+00 0.000000e+00 0
0.000000e+00 0.000000e+00 0
0.000000e+00 0.000000e+00 0
0.000000e+00 0.000000e+00 0
0.000000e+00 0.000000e+00 0
0.000000e+00 0.000000e+00 0
0.000000e+00 0.000000e+00 0
0.000000e+00 0.000000e+00 0
0.000000e+00 0.000000e+00 0
0.000000e+00 0.000000e+00 0
0.000000e+00 0.000000e+00 0
0.000000e+00 0.000000e+00 0
0.000000e+00 0.000000e+00 0
0.000000e+00 0.000000e+00 0
0.000000e+00 0.000000e+00 0
0.000000e+00 0.000000e+00 0
0.000000e+00 0.000000e+00 0
0.000000e+00 0.000000e+00 0
0.000000e+00 0.000000e+00 0
0.000000e+00 0.000000e+00 0
0.000000e+00 0.000000e+00 0
0.000000e+00 0.000000e+00 0
0.000000e+00 0.000000e+00 0
0.000000e+00 0.000000e+00 0
0.000000e+00 0.000000e+00 0
0.000000e+00 0.000000e+00 0
0.000000e+00 0.000000e+00 0
0.000000e+00 0.000000e+00 0
0.000000e+00 0.000000e+00 0
0.000000e+00 0.000000e+00 0
0.000000e+00 0.000000e+00 0
0.000000e+00 0.000000e+00 0
0.000000e+00 0.000000e+00 0
0.000000e+00 0.000000e+00 0
0.000000e+00 0.000000e+00 0
0.000000e+00 0.000000e+00 0
0.000000e+00 0.000000e+00 0
0.000000e+00 0.000000e+00 0
0.000000e+00 0.000000e+00 0
0.000000e+00 0.000000e+00 0
0.000000e+00 0.000000e+00 0
0.000000e+00 0.000000e+00 0
1.815970e+00 -3.798084e-05 0
1.815970e+00 -4.020793e-05 0
1.816003e+00 -3.454908e-05 0
1.816021e+00 -1.271025e-05 0
1.816016e+00 1.953290e-05 0
1.815976e+00 6.178292e-05 0
1.815890e+00 1.162027e-04 0
1.815746e+00 1.844281e-04 0
1.815530e+00 2.681529e-04 0
1.815226e+00 3.692713e-04 0
1.814817e+00 4.899273e-04 0
1.814283e+00 6.325430e-04 0
1.813602e+00 7.998501e-04 0
1.812749e+00 9.949156e-04 0
1.811695e+00 1.221192e-03 0
1.810411e+00 1.482616e-03 0
1.808859e+00 1.783699e-03 0
1.807001e+00 2.129646e-03 0
1.804790e+00 2.526558e-03 0
1.802175e+00 2.981689e-03 0
1.799096e+00 3.503726e-03 0
1.795486e+00 4.103091e-03 0
1.791264e+00 4.792250e-03 0
1.786340e+00 5.585763e-03 0
1.780605e+00 6.499918e-03 0
1.773935e+00 7.551314e-03 0
1.766189e+00 8.753066e-03 0
1.757213e+00 1.010655e-02 0
1.746857e+00 1.158492e-02 0
1.735007e+00 1.310444e-02 0
1.721661e+00 1.448437e-02 0
1.707054e+00 1.541608e-02 0
1.691821e+00 1.550812e-02 0
1.677075e+00 1.450687e-02 0
1.664047e+00 1.258259e-02 0
1.653366e+00 1.022505e-02 0
1.645078e+00 7.884073e-03 0
1.638901e+00 5.820529e-03 0
1.634449e+00 4.127373e-03 0
1.631343e+00 2.797382e-03 0
1.629261e+00 1.777908e-03 0
1.627951e+00 1.000071e-03 0
1.627220e+00 3.651349e-04 0
1.626927e+00 -2.072148e-04 0
1.626973e+00 -6.893764e-04 0
1.627277e+00 -1.042271e-03 0
1.627761e+00 -1.280324e-03 0
1.628358e+00 -1.419852e-03 0
1.629014e+00 -1.477346e-03 0
1.629683e+00 -1.468210e-03 0
1.630327e+00 -1.406168e-03 0
1.630918e+00 -1.303091e-03 0
1.631434e+00 -1.169042e-03 0
1.631859e+00 -1.012408e-03 0
1.632180e+00 -8.399610e-04 0
1.632391e+00 -6.566687e-04 0
1.632487e+00 -4.652319e-04 0
1.632479e+00 -2.746460e-04 0
1.632376e+00 -1.062022e-04 0
1.632189e+00 1.904166e-05 0
1.631923e+00 1.094624e-04 0
1.631586e+00 1.861740e-04 0
1.631184e+00 2.554404e-04 0
1.630720e+00 3.194906e-04 0
1.630199e+00 3.792938e-04 0
1.629624e+00 4.353624e-04 0
1.628998e+00 4.880206e-04 0
1.628325e+00 5.375057e-04 0
1.627606e+00 5.840094e-04 0
1.626846e+00 6.276937e-04 0
1.626046e+00 6.686986e-04 0
1.625208e+00 7.071491e-04 0
1.624335e+00 7.431616e-04 0
1.623430e+00 7.768495e-04 0
1.622493e+00 8.083257e-04 0
1.621528e+00 8.377013e-04 0
1.620536e+00 8.650822e-04 0
1.619518e+00 8.905677e-04 0
1.618477e+00 9.142499e-04 0
1.617414e+00 9.362164e-04 0
1.616331e+00 9.565511e-04 0
1.615229e+00 9.753361e-04 0
1.614109e+00 9.926510e-04 0
1.612973e+00 1.008572e-03 0
1.611821e+00 1.023173e-03 0
1.610657e+00 1.036523e-03 0
1.609479e+00 1.048688e-03 0
1.608290e+00 1.059729e-03 0
1.607090e+00 1.069705e-03 0
1.605880e+00 1.078671e-03 0
1.604662e+00 1.086679e-03 0
1.603435e+00 1.093782e-03 0
1.602202e+00 1.100026e-03 0
1.600962e+00 1.105459e-03 0
1.599717e+00 1.110126e-03 0
1.598466e+00 1.114069e-03 0
1.597212e+00 1.117327e-03 0
1.595953e+00 1.119936e-03 0
1.594692e+00 1.121926e-03 0
1.593428e+00 1.123327e-03 0
1.592162e+00 1.124170e-03 0
1.590895e+00 1.124483e-03 0
1.589627e+00 1.124296e-03 0
1.588358e+00 1.123637e-03 0
1.587089e+00 1.122532e-03 0
1.585820e+00 1.121006e-03 0
1.584552e+00 1.119078e-03 0
1.583285e+00 1.116768e-03 0
1.582019e+00 1.114091e-03 0
1.580755e+00 1.111063e-03 0
1.579493e+00 1.107698e-03 0
1.578234e+00 1.104013e-03 0
1.576977e+00 1.100026e-03 0
1.575723e+00 1.095753e-03 0
1.574472e+00 1.091206e-03 0
1.573224e+00 1.086397e-03 0
1.571981e+00 1.081333e-03 0
1.570741e+00 1.076022e-03 0
1.569505e+00 1.070470e-03 0
1.568274e+00 1.064687e-03 0
1.567048e+00 1.058682e-03 0
1.565826e+00 1.052463e-03 0
1.564609e+00 1.046035e-03 0
1.563398e+00 1.039401e-03 0
1.562192e+00 1.032566e-03 0
1.560991e+00 1.025532e-03 0
1.559797e+00 1.018303e-03 0
1.558608e+00 1.010881e-03 0
1.557425e+00 1.003270e-03 0
1.556249e+00 9.954714e-04 0
1.555080e+00 9.874872e-04 0
1.553917e+00 9.793174e-04 0
1.552761e+00 9.709620e-04 0
1.551613e+00 9.624203e-04 0
1.550471e+00 9.536917e-04 0
1.549337e+00 9.447749e-04 0
1.548211e+00 9.356687e-04 0
1.547093e+00 9.263710e-04 0
1.545982e+00 9.168790e-04 0
1.544880e+00 9.071886e-04 0
1.543787e+00 8.972946e-04 0
1.542702e+00 8.871895e-04 0
1.541626e+00 8.768630e-04 0
1.540559e+00 8.663007e-04 0
1.539501e+00 8.554819e-04 0
1.538453e+00 8.443771e-04 0
1.537415e+00 8.329433e-04 0
1.536387e+00 8.211169e-04 0
1.535370e+00 8.088055e-04 0
1.534364e+00 7.958665e-04 0
1.533370e+00 7.820835e-04 0
1.532389e+00 7.671107e-04 0
1.531422e+00 7.503702e-04 0
1.530471e+00 7.308240e-04 0
1.529539e+00 7.062176e-04 0
1.528631e+00 6.723299e-04 0
1.527755e+00 5.895845e-04 0
1.526927e+00 6.714727e-04 0
1.526927e+00 8.161813e-04 0
2.860364e+00 -7.530701e-05 0
2.860364e+00 -7.222984e-05 0
2.860392e+00 -5.420460e-05 0
2.860408e+00 -1.386439e-05 0
2.860404e+00 4.790008e-05 0
2.860370e+00 1.324955e-04 0
2.860296e+00 2.420619e-04 0
2.860170e+00 3.793921e-04 0
2.859980e+00 5.477807e-04 0
2.859712e+00 7.510297e-04 0
2.859350e+00 9.934682e-04 0
2.858878e+00 1.279985e-03 0
2.858274e+00 1.616068e-03 0
2.857517e+00 2.007871e-03 0
2.856582e+00 2.462338e-03 0
2.855441e+00 2.987355e-03 0
2.854062e+00 3.591945e-03 0
2.852409e+00 4.286559e-03 0
2.850443e+00 5.083481e-03 0
2.848116e+00 5.997303e-03 0
2.845378e+00 7.045507e-03 0
2.842167e+00 8.249135e-03 0
2.838414e+00 9.633403e-03 0
2.834037e+00 1.122802e-02 0
2.828938e+00 1.306677e-02 0
2.823002e+00 1.518519e-02 0
2.816095e+00 1.761392e-02 0
2.808054e+00 2.036316e-02 0
2.798698e+00 2.339026e-02 0
2.787834e+00 2.653893e-02 0
2.775317e+00 2.944356e-02 0
2.761191e+00 3.143139e-02 0
2.746010e+00 3.157741e-02 0
2.731273e+00 2.925615e-02 0
2.718922e+00 2.497431e-02 0
2.709461e+00 1.998122e-02 0
2.702546e+00 1.523679e-02 0
2.697615e+00 1.119574e-02 0
2.694155e+00 7.961292e-03 0
2.691764e+00 5.463808e-03 0
2.690149e+00 3.572899e-03 0
2.689094e+00 2.150640e-03 0
2.688439e+00 1.079211e-03 0
2.688029e+00 2.603824e-04 0
2.687738e+00 -3.687268e-04 0
2.687524e+00 -8.296585e-04 0
2.687357e+00 -1.139448e-03 0
2.687214e+00 -1.320414e-03 0
2.687079e+00 -1.394678e-03 0
2.686938e+00 -1.382393e-03 0
2.686782e+00 -1.301243e-03 0
2.686603e+00 -1.166436e-03 0
2.686394e+00 -9.909174e-04 0
2.686151e+00 -7.857121e-04 0
2.685871e+00 -5.602876e-04 0
2.685554e+00 -3.233473e-04 0
2.685208e+00 -9.244934e-05 0
2.684838e+00 1.167385e-04 0
2.684441e+00 3.048965e-04 0
2.684007e+00 4.771306e-04 0
2.683518e+00 6.349306e-04 0
2.682972e+00 7.793156e-04 0
2.682370e+00 9.129568e-04 0
2.681716e+00 1.037705e-03 0
2.681011e+00 1.154714e-03 0
2.680259e+00 1.264732e-03 0
2.679462e+00 1.368289e-03 0
2.678622e+00 1.465797e-03 0
2.677743e+00 1.557593e-03 0
2.676826e+00 1.643971e-03 0
2.675873e+00 1.725193e-03 0
2.674887e+00 1.801502e-03 0
2.673869e+00 1.873124e-03 0
2.672822e+00 1.940282e-03 0
2.671746e+00 2.003189e-03 0
2.670644e+00 2.062053e-03 0
2.669518e+00 2.117071e-03 0
2.668368e+00 2.168430e-03 0
2.667197e+00 2.216309e-03 0
2.666005e+00 2.260877e-03 0
2.664795e+00 2.302300e-03 0
2.663566e+00 2.340736e-03 0
2.662322e+00 2.376337e-03 0
2.661062e+00 2.409246e-03 0
2.659787e+00 2.439605e-03 0
2.658499e+00 2.467544e-03 0
2.657199e+00 2.493189e-03 0
2.655888e+00 2.516660e-03 0
2.654565e+00 2.538070e-03 0
2.653234e+00 2.557524e-03 0
2.651893e+00 2.575125e-03 0
2.650544e+00 2.590970e-03 0
2.649187e+00 2.605151e-03 0
2.647824e+00 2.617758e-03 0
2.646454e+00 2.628876e-03 0
2.645079e+00 2.638583e-03 0
2.643699e+00 2.646954e-03 0
2.642315e+00 2.654055e-03 0
2.640926e+00 2.659948e-03 0
2.639534e+00 2.664694e-03 0
2.638139e+00 2.668351e-03 0
2.636741e+00 2.670975e-03 0
2.635341e+00 2.672623e-03 0
2.633939e+00 2.673344e-03 0
2.632536e+00 2.673188e-03 0
2.631132e+00 2.672197e-03 0
2.629727e+00 2.670410e-03 0
2.628322e+00 2.667864e-03 0
2.626917e+00 2.664592e-03 0
2.625512e+00 2.660625e-03 0
2.624107e+00 2.655996e-03 0
2.622704e+00 2.650736e-03 0
2.621301e+00 2.644875e-03 0
2.619900e+00 2.638440e-03 0
2.618500e+00 2.631453e-03 0
2.617102e+00 2.623933e-03 0
2.615706e+00 2.615897e-03 0
2.614313e+00 2.607362e-03 0
2.612922e+00 2.598345e-03 0
2.611533e+00 2.588863e-03 0
2.610147e+00 2.578928e-03 0
2.608765e+00 2.568555e-03 0
2.607386e+00 2.557751e-03 0
2.606010e+00 2.546526e-03 0
2.604637e+00 2.534886e-03 0
2.603269e+00 2.522837e-03 0
2.601904e+00 2.510385e-03 0
2.600544e+00 2.497536e-03 0
2.599188e+00 2.484295e-03 0
2.597837e+00 2.470663e-03 0
2.596490e+00 2.456643e-03 0
2.595148e+00 2.442234e-03 0
2.593811e+00 2.427436e-03 0
2.592480e+00 2.412248e-03 0
2.591153e+00 2.396668e-03 0
2.589833e+00 2.380693e-03 0
2.588518e+00 2.364321e-03 0
2.587209e+00 2.347545e-03 0
2.585906e+00 2.330360e-03 0
2.584610e+00 2.312757e-03 0
2.583320e+00 2.294725e-03 0
2.582037e+00 2.276249e-03 0
2.580760e+00 2.257307e-03 0
2.579491e+00 2.237870e-03 0
2.578229e+00 2.217898e-03 0
2.576975e+00 2.197330e-03 0
2.575729e+00 2.176082e-03 0
2.574491e+00 2.154028e-03 0
2.573261e+00 2.130984e-03 0
2.572040e+00 2.106673e-03 0
2.570829e+00 2.080672e-03 0
2.569628e+00 2.052320e-03 0
2.568438e+00 2.020545e-03 0
2.567261e+00 1.983532e-03 0
2.566098e+00 1.938096e-03 0
2.564950e+00 1.878333e-03 0
2.563818e+00 1.795025e-03 0
2.562669e+00 1.776764e-03 0
2.562669e+00 1.807381e-03 0
3.429746e+00 -1.148423e-04 0
3.429746e+00 -1.083681e-04 0
3.429781e+00 -8.134543e-05 0
3.429807e+00 -2.589885e-05 0
3.429818e+00 5.914951e-05 0
3.429808e+00 1.759572e-04 0
3.429769e+00 3.274876e-04 0
3.429694e+00 5.175557e-04 0
3.429572e+00 7.507502e-04 0
3.429394e+00 1.032398e-03 0
3.429149e+00 1.368571e-03 0
3.428823e+00 1.766108e-03 0
3.428401e+00 2.232661e-03 0
3.427867e+00 2.776791e-03 0
3.427201e+00 3.408117e-03 0
3.426384e+00 4.137502e-03 0
3.425392e+00 4.977346e-03 0
3.424198e+00 5.941999e-03 0
3.422774e+00 7.048293e-03 0
3.421087e+00 8.316227e-03 0
3.419099e+00 9.769840e-03 0
3.416769e+00 1.143826e-02 0
3.414046e+00 1.335679e-02 0
3.410872e+00 1.556804e-02 0
3.407177e+00 1.812276e-02 0
3.402872e+00 2.107908e-02 0
3.397844e+00 2.449821e-02 0
3.391932e+00 2.843105e-02 0
3.384911e+00 3.288314e-02 0
3.376440e+00 3.773177e-02 0
3.366034e+00 4.254828e-02 0
3.353133e+00 4.628634e-02 0
3.337666e+00 4.702317e-02 0
3.321981e+00 4.304103e-02 0
3.310677e+00 3.555819e-02 0
3.303524e+00 2.747386e-02 0
3.299164e+00 2.036070e-02 0
3.296499e+00 1.465912e-02 0
3.294847e+00 1.029048e-02 0
3.293815e+00 7.016908e-03 0
3.293174e+00 4.590629e-03 0
3.292786e+00 2.801601e-03 0
3.292558e+00 1.487155e-03 0
3.292421e+00 5.305195e-04 0
3.292316e+00 -1.581099e-04 0
3.292208e+00 -6.407274e-04 0
3.292082e+00 -9.533842e-04 0
3.291934e+00 -1.126650e-03 0
3.291760e+00 -1.186680e-03 0
3.291560e+00 -1.155793e-03 0
3.291335e+00 -1.052951e-03 0
3.291084e+00 -8.941964e-04 0
3.290810e+00 -6.930633e-04 0
3.290512e+00 -4.612114e-04 0
3.290192e+00 -2.111043e-04 0
3.289855e+00 4.129745e-05 0
3.289499e+00 2.894984e-04 0
3.289117e+00 5.336541e-04 0
3.288698e+00 7.685978e-04 0
3.288239e+00 9.908945e-04 0
3.287740e+00 1.199726e-03 0
3.287199e+00 1.395353e-03 0
3.286616e+00 1.578883e-03 0
3.285993e+00 1.751447e-03 0
3.285332e+00 1.913969e-03 0
3.284634e+00 2.067173e-03 0
3.283901e+00 2.211641e-03 0
3.283136e+00 2.347859e-03 0
3.282339e+00 2.476250e-03 0
3.281512e+00 2.597194e-03 0
3.280658e+00 2.711039e-03 0
3.279777e+00 2.818114e-03 0
3.278871e+00 2.918735e-03 0
3.277942e+00 3.013207e-03 0
3.276991e+00 3.101822e-03 0
3.276019e+00 3.184861e-03 0
3.275028e+00 3.262594e-03 0
3.274018e+00 3.335276e-03 0
3.272991e+00 3.403153e-03 0
3.271948e+00 3.466462e-03 0
3.270890e+00 3.525432e-03 0
3.269817e+00 3.580281e-03 0
3.268731e+00 3.631216e-03 0
3.267633e+00 3.678438e-03 0
3.266523e+00 3.722136e-03 0
3.265403e+00 3.762493e-03 0
3.264272e+00 3.799682e-03 0
3.263132e+00 3.833868e-03 0
3.261983e+00 3.865204e-03 0
3.260826e+00 3.893840e-03 0
3.259662e+00 3.919913e-03 0
3.258491e+00 3.943559e-03 0
3.257313e+00 3.964904e-03 0
3.256130e+00 3.984070e-03 0
3.254941e+00 4.001174e-03 0
3.253747e+00 4.016324e-03 0
3.252549e+00 4.029619e-03 0
3.251346e+00 4.041152e-03 0
3.250140e+00 4.051011e-03 0
3.248931e+00 4.059278e-03 0
3.247719e+00 4.066037e-03 0
3.246504e+00 4.071365e-03 0
3.245287e+00 4.075336e-03 0
3.244068e+00 4.078021e-03 0
3.242848e+00 4.079483e-03 0
3.241626e+00 4.079779e-03 0
3.240403e+00 4.078965e-03 0
3.239178e+00 4.077090e-03 0
3.237954e+00 4.074202e-03 0
3.236729e+00 4.070345e-03 0
3.235504e+00 4.065566e-03 0
3.234278e+00 4.059906e-03 0
3.233053e+00 4.053404e-03 0
3.231829e+00 4.046094e-03 0
3.230605e+00 4.038007e-03 0
3.229382e+00 4.029169e-03 0
3.228160e+00 4.019604e-03 0
3.226939e+00 4.009337e-03 0
3.225719e+00 3.998392e-03 0
3.224501e+00 3.986791e-03 0
3.223284e+00 3.974550e-03 0
3.222070e+00 3.961686e-03 0
3.220857e+00 3.948211e-03 0
3.219646e+00 3.934136e-03 0
3.218438e+00 3.919471e-03 0
3.217232e+00 3.904225e-03 0
3.216028e+00 3.888407e-03 0
3.214827e+00 3.872023e-03 0
3.213629e+00 3.855078e-03 0
3.212434e+00 3.837574e-03 0
3.211242e+00 3.819513e-03 0
3.210053e+00 3.800894e-03 0
3.208868e+00 3.781718e-03 0
3.207686e+00 3.761981e-03 0
3.206508e+00 3.741682e-03 0
3.205334e+00 3.720815e-03 0
3.204163e+00 3.699377e-03 0
3.202997e+00 3.677359e-03 0
3.201835e+00 3.654753e-03 0
3.200677e+00 3.631547e-03 0
3.199524e+00 3.607725e-03 0
3.198375e+00 3.583268e-03 0
3.197231e+00 3.558147e-03 0
3.196093e+00 3.532325e-03 0
3.194959e+00 3.505749e-03 0
3.193831e+00 3.478342e-03 0
3.192709e+00 3.449997e-03 0
3.191592e+00 3.420557e-03 0
3.190481e+00 3.389792e-03 0
3.189376e+00 3.357367e-03 0
3.188278e+00 3.322778e-03 0
3.187186e+00 3.285275e-03 0
3.186101e+00 3.243716e-03 0
3.185023e+00 3.196388e-03 0
3.183952e+00 3.140783e-03 0
3.182885e+00 3.073732e-03 0
3.181818e+00 2.992182e-03 0
3.180741e+00 2.914867e-03 0
3.180741e+00 2.882294e-03 0
3.743881e+00 -1.595344e-04 0
3.743881e+00 -1.511651e-04 0
3.743924e+00 -1.185263e-04 0
3.743962e+00 -5.320191e-05 0
3.743990e+00 4.678380e-05 0
3.744006e+00 1.841779e-04 0
3.744005e+00 3.627359e-04 0
3.743981e+00 5.871249e-04 0
3.743928e+00 8.629273e-04 0
3.743840e+00 1.196620e-03 0
3.743709e+00 1.595573e-03 0
3.743525e+00 2.068044e-03 0
3.743277e+00 2.623230e-03 0
3.742956e+00 3.271353e-03 0
3.742546e+00 4.023799e-03 0
3.742035e+00 4.893328e-03 0
3.741405e+00 5.894409e-03 0
3.740641e+00 7.043682e-03 0
3.739722e+00 8.360581e-03 0
3.738630e+00 9.868156e-03 0
3.737340e+00 1.159420e-02 0
3.735828e+00 1.357256e-02 0
3.734066e+00 1.584496e-02 0
3.732020e+00 1.846335e-02 0
3.729649e+00 2.149296e-02 0
3.726899e+00 2.501614e-02 0
3.723690e+00 2.913707e-02 0
3.719892e+00 3.398518e-02 0
3.715268e+00 3.970852e-02 0
3.709362e+00 4.642264e-02 0
3.701253e+00 5.399370e-02 0
3.689160e+00 6.131245e-02 0
3.670330e+00 6.439224e-02 0
3.648230e+00 5.768498e-02 0
3.637731e+00 4.441533e-02 0
3.633916e+00 3.210838e-02 0
3.632951e+00 2.263552e-02 0
3.633034e+00 1.574195e-02 0
3.633437e+00 1.078903e-02 0
3.633889e+00 7.226997e-03 0
3.634300e+00 4.656665e-03 0
3.634644e+00 2.799793e-03 0
3.634915e+00 1.463840e-03 0
3.635111e+00 5.148059e-04 0
3.635237e+00 -1.445295e-04 0
3.635291e+00 -5.837478e-04 0
3.635277e+00 -8.504898e-04 0
3.635203e+00 -9.801908e-04 0
3.635077e+00 -1.000698e-03 0
3.634905e+00 -9.346050e-04 0
3.634695e+00 -8.005713e-04 0
3.634452e+00 -6.141165e-04 0
3.634181e+00 -3.877755e-04 0
3.633886e+00 -1.348526e-04 0
3.633570e+00 1.318553e-04 0
3.633234e+00 4.066900e-04 0
3.632871e+00 6.851698e-04 0
3.632482e+00 9.608157e-04 0
3.632065e+00 1.228860e-03 0
3.631620e+00 1.486131e-03 0
3.631145e+00 1.731067e-03 0
3.630641e+00 1.963196e-03 0
3.630105e+00 2.182760e-03 0
3.629541e+00 2.390299e-03 0
3.628948e+00 2.586418e-03 0
3.628327e+00 2.771700e-03 0
3.627680e+00 2.946683e-03 0
3.627009e+00 3.111856e-03 0
3.626314e+00 3.267674e-03 0
3.625597e+00 3.414563e-03 0
3.624858e+00 3.552928e-03 0
3.624100e+00 3.683158e-03 0