<?xml version="1.0"?>
<VTKFile type="StructuredGrid">
<StructuredGrid WholeExtent="0 158 0 30 0 0 ">
<Piece Extent="0 158 0 30 0 0 ">
<Points>
<DataArray type="Float64" format="ascii" NumberOfComponents="3">
0.000000e+00 0.000000e+00 0.000000e+00
3.164557e-02 0.000000e+00 0.000000e+00
6.329114e-02 0.000000e+00 0.000000e+00
9.493671e-02 0.000000e+00 0.000000e+00
1.265823e-01 0.000000e+00 0.000000e+00
1.582278e-01 0.000000e+00 0.000000e+00
1.898734e-01 0.000000e+00 0.000000e+00
2.215190e-01 0.000000e+00 0.000000e+00
2.531646e-01 0.000000e+00 0.000000e+00
2.848101e-01 0.000000e+00 0.000000e+00
3.164557e-01 0.000000e+00 0.000000e+00
3.481013e-01 0.000000e+00 0.000000e+00
3.797468e-01 0.000000e+00 0.000000e+00
4.113924e-01 0.000000e+00 0.000000e+00
4.430380e-01 0.000000e+00 0.000000e+00
4.746835e-01 0.000000e+00 0.000000e+00
5.063291e-01 0.000000e+00 0.000000e+00
5.379747e-01 0.000000e+00 0.000000e+00
5.696203e-01 0.000000e+00 0.000000e+00
6.012658e-01 0.000000e+00 0.000000e+00
6.329114e-01 0.000000e+00 0.000000e+00
6.645570e-01 0.000000e+00 0.000000e+00
6.962025e-01 0.000000e+00 0.000000e+00
7.278481e-01 0.000000e+00 0.000000e+00
7.594937e-01 0.000000e+00 0.000000e+00
7.911392e-01 0.000000e+00 0.000000e+00
8.227848e-01 0.000000e+00 0.000000e+00
8.544304e-01 0.000000e+00 0.000000e+00
8.860759e-01 0.000000e+00 0.000000e+00
9.177215e-01 0.000000e+00 0.000000e+00
9.493671e-01 0.000000e+00 0.000000e+00
9.810127e-01 0.000000e+00 0.000000e+00
1.012658e+00 0.000000e+00 0.000000e+00
1.044304e+00 0.000000e+00 0.000000e+00
1.075949e+00 0.000000e+00 0.000000e+00
1.107595e+00 0.000000e+00 0.000000e+00
1.139241e+00 0.000000e+00 0.000000e+00
1.170886e+00 0.000000e+00 0.000000e+00
1.202532e+00 0.000000e+00 0.000000e+00
1.234177e+00 0.000000e+00 0.000000e+00
1.265823e+00 0.000000e+00 0.000000e+00
1.297468e+00 0.000000e+00 0.000000e+00
1.329114e+00 0.000000e+00 0.000000e+00
1.360759e+00 0.000000e+00 0.000000e+00
1.392405e+00 0.000000e+00 0.000000e+00
1.424051e+00 0.000000e+00 0.000000e+00
1.455696e+00 0.000000e+00 0.000000e+00
1.487342e+00 0.000000e+00 0.000000e+00
1.518987e+00 0.000000e+00 0.000000e+00
1.550633e+00 0.000000e+00 0.000000e+00
1.582278e+00 0.000000e+00 0.000000e+00
1.613924e+00 0.000000e+00 0.000000e+00
1.645570e+00 0.000000e+00 0.000000e+00
1.677215e+00 0.000000e+00 0.000000e+00
1.708861e+00 0.000000e+00 0.000000e+00
1.740506e+00 0.000000e+00 0.000000e+00
1.772152e+00 0.000000e+00 0.000000e+00
1.803797e+00 0.000000e+00 0.000000e+00
1.835443e+00 0.000000e+00 0.000000e+00
1.867089e+00 0.000000e+00 0.000000e+00
1.898734e+00 0.000000e+00 0.000000e+00
1.930380e+00 0.000000e+00 0.000000e+00
1.962025e+00 0.000000e+00 0.000000e+00
1.993671e+00 0.000000e+00 0.000000e+00
2.025316e+00 0.000000e+00 0.000000e+00
2.056962e+00 0.000000e+00 0.000000e+00
2.088608e+00 0.000000e+00 0.000000e+00
2.120253e+00 0.000000e+00 0.000000e+00
2.151899e+00 0.000000e+00 0.000000e+00
2.183544e+00 0.000000e+00 0.000000e+00
2.215190e+00 0.000000e+00 0.000000e+00
2.246835e+00 0.000000e+00 0.000000e+00
2.278481e+00 0.000000e+00 0.000000e+00
2.310127e+00 0.000000e+00 0.000000e+00
2.341772e+00 0.000000e+00 0.000000e+00
2.373418e+00 0.000000e+00 0.000000e+00
2.405063e+00 0.000000e+00 0.000000e+00
2.436709e+00 0.000000e+00 0.000000e+00
2.468354e+00 0.000000e+00 0.000000e+00
2.500000e+00 0.000000e+00 0.000000e+00
2.531646e+00 0.000000e+00 0.000000e+00
2.563291e+00 0.000000e+00 0.000000e+00
2.594937e+00 0.000000e+00 0.000000e+00
2.626582e+00 0.000000e+00 0.000000e+00
2.658228e+00 0.000000e+00 0.000000e+00
2.689873e+00 0.000000e+00 0.000000e+00
2.721519e+00 0.000000e+00 0.000000e+00
2.753165e+00 0.000000e+00 0.000000e+00
2.784810e+00 0.000000e+00 0.000000e+00
2.816456e+00 0.000000e+00 0.000000e+00
2.848101e+00 0.000000e+00 0.000000e+00
2.879747e+00 0.000000e+00 0.000000e+00
2.911392e+00 0.000000e+00 0.000000e+00
2.943038e+00 0.000000e+00 0.000000e+00
2.974684e+00 0.000000e+00 0.000000e+00
3.006329e+00 0.000000e+00 0.000000e+00
3.037975e+00 0.000000e+00 0.000000e+00
3.069620e+00 0.000000e+00 0.000000e+00
3.101266e+00 0.000000e+00 0.000000e+00
3.132911e+00 0.000000e+00 0.000000e+00
3.164557e+00 0.000000e+00 0.000000e+00
3.196203e+00 0.000000e+00 0.000000e+00
3.227848e+00 0.000000e+00 0.000000e+00
3.259494e+00 0.000000e+00 0.000000e+00
3.291139e+00 0.000000e+00 0.000000e+00
3.322785e+00 0.000000e+00 0.000000e+00
3.354430e+00 0.000000e+00 0.000000e+00
3.386076e+00 0.000000e+00 0.000000e+00
3.417722e+00 0.000000e+00 0.000000e+00
3.449367e+00 0.000000e+00 0.000000e+00
3.481013e+00 0.000000e+00 0.000000e+00
3.512658e+00 0.000000e+00 0.000000e+00
3.544304e+00 0.000000e+00 0.000000e+00
3.575949e+00 0.000000e+00 0.000000e+00
3.607595e+00 0.000000e+00 0.000000e+00
3.639241e+00 0.000000e+00 0.000000e+00
3.670886e+00 0.000000e+00 0.000000e+00
3.702532e+00 0.000000e+00 0.000000e+00
3.734177e+00 0.000000e+00 0.000000e+00
3.765823e+00 0.000000e+00 0.000000e+00
3.797468e+00 0.000000e+00 0.000000e+00
3.829114e+00 0.000000e+00 0.000000e+00
3.860759e+00 0.000000e+00 0.000000e+00
3.892405e+00 0.000000e+00 0.000000e+00
3.924051e+00 0.000000e+00 0.000000e+00
3.955696e+00 0.000000e+00 0.000000e+00
3.987342e+00 0.000000e+00 0.000000e+00
4.018987e+00 0.000000e+00 0.000000e+00
4.050633e+00 0.000000e+00 0.000000e+00
4.082278e+00 0.000000e+00 0.000000e+00
4.113924e+00 0.000000e+00 0.000000e+00
4.145570e+00 0.000000e+00 0.000000e+00
4.177215e+00 0.000000e+00 0.000000e+00
4.208861e+00 0.000000e+00 0.000000e+00
4.240506e+00 0.000000e+00 0.000000e+00
4.272152e+00 0.000000e+00 0.000000e+00
4.303797e+00 0.000000e+00 0.000000e+00
4.335443e+00 0.000000e+00 0.000000e+00
4.367089e+00 0.000000e+00 0.000000e+00
4.398734e+00 0.000000e+00 0.000000e+00
4.430380e+00 0.000000e+00 0.000000e+00
4.462025e+00 0.000000e+00 0.000000e+00
4.493671e+00 0.000000e+00 0.000000e+00
4.525316e+00 0.000000e+00 0.000000e+00
4.556962e+00 0.000000e+00 0.000000e+00
4.588608e+00 0.000000e+00 0.000000e+00
4.620253e+00 0.000000e+00 0.000000e+00
4.651899e+00 0.000000e+00 0.000000e+00
4.683544e+00 0.000000e+00 0.000000e+00
4.715190e+00 0.000000e+00 0.000000e+00
4.746835e+00 0.000000e+00 0.000000e+00
4.778481e+00 0.000000e+00 0.000000e+00
4.810127e+00 0.000000e+00 0.000000e+00
4.841772e+00 0.000000e+00 0.000000e+00
4.873418e+00 0.000000e+00 0.000000e+00
4.905063e+00 0.000000e+00 0.000000e+00
4.936709e+00 0.000000e+00 0.000000e+00
4.968354e+00 0.000000e+00 0.000000e+00
5.000000e+00 0.000000e+00 0.000000e+00
0.000000e+00 3.333333e-02 0.000000e+00
3.164557e-02 3.333333e-02 0.000000e+00
6.329114e-02 3.333333e-02 0.000000e+00
9.493671e-02 3.333333e-02 0.000000e+00
1.265823e-01 3.333333e-02 0.000000e+00
1.582278e-01 3.333333e-02 0.000000e+00
1.898734e-01 3.333333e-02 0.000000e+00
2.215190e-01 3.333333e-02 0.000000e+00
2.531646e-01 3.333333e-02 0.000000e+00
2.848101e-01 3.333333e-02 0.000000e+00
3.164557e-01 3.333333e-02 0.000000e+00
3.481013e-01 3.333333e-02 0.000000e+00
3.797468e-01 3.333333e-02 0.000000e+00
4.113924e-01 3.333333e-02 0.000000e+00
4.430380e-01 3.333333e-02 0.000000e+00
4.746835e-01 3.333333e-02 0.000000e+00
5.063291e-01 3.333333e-02 0.000000e+00
5.379747e-01 3.333333e-02 0.000000e+00
5.696203e-01 3.333333e-02 0.000000e+00
6.012658e-01 3.333333e-02 0.000000e+00
6.329114e-01 3.333333e-02 0.000000e+00
6.645570e-01 3.333333e-02 0.000000e+00
6.962025e-01 3.333333e-02 0.000000e+00
7.278481e-01 3.333333e-02 0.000000e+00
7.594937e-01 3.333333e-02 0.000000e+00
7.911392e-01 3.333333e-02 0.000000e+00
8.227848e-01 3.333333e-02 0.000000e+00
8.544304e-01 3.333333e-02 0.000000e+00
8.860759e-01 3.333333e-02 0.000000e+00
9.177215e-01 3.333333e-02 0.000000e+00
9.493671e-01 3.333333e-02 0.000000e+00
9.810127e-01 3.333333e-02 0.000000e+00
1.012658e+00 3.333333e-02 0.000000e+00
1.044304e+00 3.333333e-02 0.000000e+00
1.075949e+00 3.333333e-02 0.000000e+00
1.107595e+00 3.333333e-02 0.000000e+00
1.139241e+00 3.333333e-02 0.000000e+00
1.170886e+00 3.333333e-02 0.000000e+00
1.202532e+00 3.333333e-02 0.000000e+00
1.234177e+00 3.333333e-02 0.000000e+00
1.265823e+00 3.333333e-02 0.000000e+00
1.297468e+00 3.333333e-02 0.000000e+00
1.329114e+00 3.333333e-02 0.000000e+00
1.360759e+00 3.333333e-02 0.000000e+00
1.392405e+00 3.333333e-02 0.000000e+00
1.424051e+00 3.333333e-02 0.000000e+00
1.455696e+00 3.333333e-02 0.000000e+00
1.487342e+00 3.333333e-02 0.000000e+00
1.518987e+00 3.333333e-02 0.000000e+00
1.550633e+00 3.333333e-02 0.000000e+00
1.582278e+00 3.333333e-02 0.000000e+00
1.613924e+00 3.333333e-02 0.000000e+00
1.645570e+00 3.333333e-02 0.000000e+00
1.677215e+00 3.333333e-02 0.000000e+00
1.708861e+00 3.333333e-02 0.000000e+00
1.740506e+00 3.333333e-02 0.000000e+00
1.772152e+00 3.333333e-02 0.000000e+00
1.803797e+00 3.333333e-02 0.000000e+00
1.835443e+00 3.333333e-02 0.000000e+00
1.867089e+00 3.333333e-02 0.000000e+00
1.898734e+00 3.333333e-02 0.000000e+00
1.930380e+00 3.333333e-02 0.000000e+00
1.962025e+00 3.333333e-02 0.000000e+00
1.993671e+00 3.333333e-02 0.000000e+00
2.025316e+00 3.333333e-02 0.000000e+00
2.056962e+00 3.333333e-02 0.000000e+00
2.088608e+00 3.333333e-02 0.000000e+00
2.120253e+00 3.333333e-02 0.000000e+00
2.151899e+00 3.333333e-02 0.000000e+00
2.183544e+00 3.333333e-02 0.000000e+00
2.215190e+00 3.333333e-02 0.000000e+00
2.246835e+00 3.333333e-02 0.000000e+00
2.278481e+00 3.333333e-02 0.000000e+00
2.310127e+00 3.333333e-02 0.000000e+00
2.341772e+00 3.333333e-02 0.000000e+00
2.373418e+00 3.333333e-02 0.000000e+00
2.405063e+00 3.333333e-02 0.000000e+00
2.436709e+00 3.333333e-02 0.000000e+00
2.468354e+00 3.333333e-02 0.000000e+00
2.500000e+00 3.333333e-02 0.000000e+00
2.531646e+00 3.333333e-02 0.000000e+00
2.563291e+00 3.333333e-02 0.000000e+00
2.594937e+00 3.333333e-02 0.000000e+00
2.626582e+00 3.333333e-02 0.000000e+00
2.658228e+00 3.333333e-02 0.000000e+00
2.689873e+00 3.333333e-02 0.000000e+00
2.721519e+00 3.333333e-02 0.000000e+00
2.753165e+00 3.333333e-02 0.000000e+00
2.784810e+00 3.333333e-02 0.000000e+00
2.816456e+00 3.333333e-02 0.000000e+00
2.848101e+00 3.333333e-02 0.000000e+00
2.879747e+00 3.333333e-02 0.000000e+00
[...]
<PointData>
<DataArray Name="Velocity" type="Float64" format="ascii" NumberOfComponents="3">
0.000000e+00 0.000000e+00 0
0.000000e+00 0.000000e+00 0
0.000000e+00 0.000000e+00 0
0.000000e+00 0.000000e+00 0
0.000000e+00 0.000000e+00 0
0.000000e+00 0.000000e+00 0
0.000000e+00 0.000000e+00 0
0.000000e+00 0.000000e+00 0
0.000000e+00 0.000000e+00 0
0.000000e+00 0.000000e+00 0
0.000000e+00 0.000000e+00 0
0.000000e+00 0.000000e+00 0
0.000000e+00 0.000000e+00 0
0.000000e+00 0.000000e+00 0
0.000000e+00 0.000000e+00 0
0.000000e+00 0.000000e+00 0
0.000000e+00 0.000000e+00 0
0.000000e+00 0.000000e+00 0
0.000000e+00 0.000000e+00 0
-2.508296e-17 0.000000e+00 0
0.000000e+00 0.000000e+00 0
0.000000e+00 0.000000e+00 0
0.000000e+00 0.000000e+00 0
-9.419322e-18 0.000000e+00 0
0.000000e+00 0.000000e+00 0
0.000000e+00 0.000000e+00 0
0.000000e+00 0.000000e+00 0
2.774209e-17 0.000000e+00 0
0.000000e+00 0.000000e+00 0
0.000000e+00 0.000000e+00 0
0.000000e+00 0.000000e+00 0
1.819315e-17 0.000000e+00 0
0.000000e+00 0.000000e+00 0
0.000000e+00 0.000000e+00 0
0.000000e+00 0.000000e+00 0
0.000000e+00 0.000000e+00 0
0.000000e+00 0.000000e+00 0
0.000000e+00 0.000000e+00 0
-1.064511e-17 0.000000e+00 0
0.000000e+00 0.000000e+00 0
0.000000e+00 0.000000e+00 0
0.000000e+00 0.000000e+00 0
0.000000e+00 0.000000e+00 0
0.000000e+00 0.000000e+00 0
0.000000e+00 0.000000e+00 0
0.000000e+00 0.000000e+00 0
3.353504e-18 0.000000e+00 0
0.000000e+00 0.000000e+00 0
0.000000e+00 0.000000e+00 0
0.000000e+00 0.000000e+00 0
0.000000e+00 0.000000e+00 0
0.000000e+00 0.000000e+00 0
0.000000e+00 0.000000e+00 0
0.000000e+00 0.000000e+00 0
2.834706e-18 0.000000e+00 0
0.000000e+00 0.000000e+00 0
0.000000e+00 0.000000e+00 0
0.000000e+00 0.000000e+00 0
0.000000e+00 0.000000e+00 0
0.000000e+00 0.000000e+00 0
0.000000e+00 0.000000e+00 0
0.000000e+00 0.000000e+00 0
9.293939e-18 0.000000e+00 0
0.000000e+00 0.000000e+00 0
0.000000e+00 0.000000e+00 0
0.000000e+00 0.000000e+00 0
0.000000e+00 0.000000e+00 0
0.000000e+00 0.000000e+00 0
0.000000e+00 0.000000e+00 0
0.000000e+00 0.000000e+00 0
0.000000e+00 0.000000e+00 0
0.000000e+00 0.000000e+00 0
0.000000e+00 0.000000e+00 0
0.000000e+00 0.000000e+00 0
0.000000e+00 0.000000e+00 0
0.000000e+00 0.000000e+00 0
0.000000e+00 0.000000e+00 0
0.000000e+00 0.000000e+00 0
0.000000e+00 0.000000e+00 0
0.000000e+00 0.000000e+00 0
0.000000e+00 0.000000e+00 0
0.000000e+00 0.000000e+00 0
0.000000e+00 0.000000e+00 0
0.000000e+00 0.000000e+00 0
0.000000e+00 0.000000e+00 0
0.000000e+00 0.000000e+00 0
0.000000e+00 0.000000e+00 0
0.000000e+00 0.000000e+00 0
0.000000e+00 0.000000e+00 0
0.000000e+00 0.000000e+00 0
0.000000e+00 0.000000e+00 0
0.000000e+00 0.000000e+00 0
0.000000e+00 0.000000e+00 0
0.000000e+00 0.000000e+00 0
0.000000e+00 0.000000e+00 0
0.000000e+00 0.000000e+00 0
0.000000e+00 0.000000e+00 0
0.000000e+00 0.000000e+00 0
0.000000e+00 0.000000e+00 0
0.000000e+00 0.000000e+00 0
0.000000e+00 0.000000e+00 0
0.000000e+00 0.000000e+00 0
0.000000e+00 0.000000e+00 0
0.000000e+00 0.000000e+00 0
0.000000e+00 0.000000e+00 0
0.000000e+00 0.000000e+00 0
0.000000e+00 0.000000e+00 0
0.000000e+00 0.000000e+00 0
0.000000e+00 0.000000e+00 0
0.000000e+00 0.000000e+00 0
0.000000e+00 0.000000e+00 0
0.000000e+00 0.000000e+00 0
0.000000e+00 0.000000e+00 0
0.000000e+00 0.000000e+00 0
0.000000e+00 0.000000e+00 0
0.000000e+00 0.000000e+00 0
0.000000e+00 0.000000e+00 0
0.000000e+00 0.000000e+00 0
0.000000e+00 0.000000e+00 0
0.000000e+00 0.000000e+00 0
0.000000e+00 0.000000e+00 0
0.000000e+00 0.000000e+00 0
0.000000e+00 0.000000e+00 0
0.000000e+00 0.000000e+00 0
0.000000e+00 0.000000e+00 0
0.000000e+00 0.000000e+00 0
0.000000e+00 0.000000e+00 0
0.000000e+00 0.000000e+00 0
0.000000e+00 0.000000e+00 0
0.000000e+00 0.000000e+00 0
0.000000e+00 0.000000e+00 0
0.000000e+00 0.000000e+00 0
0.000000e+00 0.000000e+00 0
0.000000e+00 0.000000e+00 0
0.000000e+00 0.000000e+00 0
0.000000e+00 0.000000e+00 0
0.000000e+00 0.000000e+00 0
0.000000e+00 0.000000e+00 0
0.000000e+00 0.000000e+00 0
0.000000e+00 0.000000e+00 0
0.000000e+00 0.000000e+00 0
0.000000e+00 0.000000e+00 0
0.000000e+00 0.000000e+00 0
0.000000e+00 0.000000e+00 0
0.000000e+00 0.000000e+00 0
0.000000e+00 0.000000e+00 0
0.000000e+00 0.000000e+00 0
0.000000e+00 0.000000e+00 0
0.000000e+00 0.000000e+00 0
0.000000e+00 0.000000e+00 0
0.000000e+00 0.000000e+00 0
0.000000e+00 0.000000e+00 0
0.000000e+00 0.000000e+00 0
0.000000e+00 0.000000e+00 0
0.000000e+00 0.000000e+00 0
0.000000e+00 0.000000e+00 0
0.000000e+00 0.000000e+00 0
0.000000e+00 0.000000e+00 0
0.000000e+00 0.000000e+00 0
1.542093e+00 -6.767257e-05 0
1.542093e+00 -7.302412e-05 0
1.542154e+00 -6.914512e-05 0
1.542199e+00 -4.115679e-05 0
1.542215e+00 -2.285557e-07 0
1.542191e+00 5.020926e-05 0
1.542113e+00 1.142202e-04 0
1.541967e+00 1.943036e-04 0
1.541737e+00 2.927521e-04 0
1.541403e+00 4.120382e-04 0
1.540945e+00 5.549297e-04 0
1.540340e+00 7.245493e-04 0
1.539559e+00 9.243912e-04 0
1.538573e+00 1.158394e-03 0
1.537347e+00 1.431039e-03 0
1.535841e+00 1.747425e-03 0
1.534012e+00 2.113444e-03 0
1.531810e+00 2.535943e-03 0
1.529176e+00 3.022992e-03 0
1.526046e+00 3.584203e-03 0
1.522343e+00 4.231075e-03 0
1.517980e+00 4.977407e-03 0
1.512856e+00 5.839609e-03 0
1.506850e+00 6.836865e-03 0
1.499824e+00 7.990681e-03 0
1.491615e+00 9.322899e-03 0
1.482040e+00 1.085071e-02 0
1.470899e+00 1.257576e-02 0
1.457995e+00 1.446276e-02 0
1.443180e+00 1.640265e-02 0
1.426451e+00 1.816201e-02 0
1.408106e+00 1.934532e-02 0
1.388962e+00 1.945430e-02 0
1.370438e+00 1.816765e-02 0
1.354106e+00 1.570379e-02 0
1.340775e+00 1.268862e-02 0
1.330498e+00 9.696940e-03 0
1.322915e+00 7.061672e-03 0
1.317531e+00 4.900241e-03 0
1.313863e+00 3.200622e-03 0
1.311503e+00 1.889275e-03 0
1.310133e+00 8.539428e-04 0
1.309520e+00 -8.819379e-05 0
1.309488e+00 -9.341055e-04 0
1.309911e+00 -1.571756e-03 0
1.310665e+00 -2.020167e-03 0
1.311641e+00 -2.304402e-03 0
1.312747e+00 -2.451369e-03 0
1.313909e+00 -2.486756e-03 0
1.315066e+00 -2.433533e-03 0
1.316171e+00 -2.311476e-03 0
1.317186e+00 -2.137252e-03 0
1.318084e+00 -1.924769e-03 0
1.318845e+00 -1.685573e-03 0
1.319454e+00 -1.429170e-03 0
1.319903e+00 -1.163079e-03 0
1.320187e+00 -8.927915e-04 0
1.320308e+00 -6.204011e-04 0
1.320283e+00 -3.575039e-04 0
1.320129e+00 -1.316355e-04 0
1.319859e+00 3.478694e-05 0
1.319484e+00 1.558006e-04 0
1.319013e+00 2.580816e-04 0
1.318454e+00 3.497777e-04 0
1.317815e+00 4.339777e-04 0
1.317101e+00 5.121602e-04 0
1.316317e+00 5.851607e-04 0
1.315466e+00 6.534916e-04 0
1.314554e+00 7.174909e-04 0
1.313584e+00 7.774196e-04 0
1.312560e+00 8.335204e-04 0
1.311484e+00 8.860351e-04 0
1.310360e+00 9.351944e-04 0
1.309191e+00 9.812014e-04 0
1.307979e+00 1.024229e-03 0
1.306728e+00 1.064430e-03 0
1.305440e+00 1.101949e-03 0
1.304117e+00 1.136929e-03 0
1.302761e+00 1.169506e-03 0
1.301375e+00 1.199801e-03 0
1.299960e+00 1.227922e-03 0
1.298519e+00 1.253974e-03 0
1.297053e+00 1.278060e-03 0
1.295564e+00 1.300295e-03 0
1.294054e+00 1.320795e-03 0
1.292524e+00 1.339671e-03 0
1.290976e+00 1.357022e-03 0
1.289410e+00 1.372925e-03 0
1.287829e+00 1.387441e-03 0
1.286234e+00 1.400622e-03 0
1.284625e+00 1.412522e-03 0
1.283005e+00 1.423207e-03 0
1.281373e+00 1.432755e-03 0
1.279731e+00 1.441248e-03 0
1.278079e+00 1.448763e-03 0
1.276420e+00 1.455356e-03 0
1.274753e+00 1.461068e-03 0
1.273080e+00 1.465925e-03 0
1.271400e+00 1.469955e-03 0
1.269716e+00 1.473195e-03 0
1.268027e+00 1.475690e-03 0
1.266334e+00 1.477489e-03 0
1.264638e+00 1.478639e-03 0
1.262940e+00 1.479179e-03 0
1.261239e+00 1.479139e-03 0
1.259538e+00 1.478542e-03 0
1.257835e+00 1.477407e-03 0
1.256131e+00 1.475754e-03 0
1.254428e+00 1.473600e-03 0
1.252725e+00 1.470970e-03 0
1.251023e+00 1.467888e-03 0
1.249322e+00 1.464380e-03 0
1.247623e+00 1.460468e-03 0
1.245926e+00 1.456169e-03 0
1.244231e+00 1.451497e-03 0
1.242539e+00 1.446461e-03 0
1.240851e+00 1.441067e-03 0
1.239165e+00 1.435325e-03 0
1.237484e+00 1.429243e-03 0
1.235806e+00 1.422831e-03 0
1.234133e+00 1.416098e-03 0
1.232464e+00 1.409055e-03 0
1.230801e+00 1.401709e-03 0
1.229142e+00 1.394068e-03 0
1.227490e+00 1.386135e-03 0
1.225843e+00 1.377910e-03 0
1.224202e+00 1.369395e-03 0
1.222567e+00 1.360588e-03 0
1.220940e+00 1.351490e-03 0
1.219319e+00 1.342099e-03 0
1.217705e+00 1.332415e-03 0
1.216099e+00 1.322439e-03 0
1.214501e+00 1.312167e-03 0
1.212911e+00 1.301597e-03 0
1.211330e+00 1.290726e-03 0
1.209757e+00 1.279547e-03 0
1.208193e+00 1.268055e-03 0
1.206638e+00 1.256243e-03 0
1.205093e+00 1.244102e-03 0
1.203558e+00 1.231621e-03 0
1.202034e+00 1.218790e-03 0
1.200520e+00 1.205591e-03 0
1.199017e+00 1.192006e-03 0
1.197526e+00 1.178008e-03 0
1.196046e+00 1.163565e-03 0
1.194579e+00 1.148627e-03 0
1.193125e+00 1.133131e-03 0
1.191684e+00 1.116983e-03 0
1.190257e+00 1.100051e-03 0
1.188845e+00 1.082135e-03 0
1.187449e+00 1.062941e-03 0
1.186071e+00 1.042007e-03 0
1.184711e+00 1.018571e-03 0
1.183374e+00 9.912883e-04 0
1.182063e+00 9.572541e-04 0
1.180785e+00 9.111718e-04 0
1.179550e+00 7.993521e-04 0
1.178377e+00 9.377543e-04 0
1.178377e+00 1.161107e-03 0
2.343552e+00 -1.334055e-04 0
2.343552e+00 -1.312361e-04 0
2.343604e+00 -1.119992e-04 0
2.343643e+00 -6.443813e-05 0
2.343661e+00 8.789143e-06 0
2.343646e+00 1.078734e-04 0
2.343585e+00 2.358861e-04 0
2.343464e+00 3.965163e-04 0
2.343271e+00 5.940401e-04 0
2.342987e+00 8.333425e-04 0
2.342595e+00 1.119976e-03 0
2.342073e+00 1.460193e-03 0
2.341398e+00 1.861029e-03 0
2.340543e+00 2.330433e-03 0
2.339478e+00 2.877389e-03 0
2.338167e+00 3.512143e-03 0
2.336572e+00 4.246486e-03 0
2.334649e+00 5.094155e-03 0
2.332347e+00 6.071351e-03 0
2.329610e+00 7.197358e-03 0
2.326371e+00 8.495325e-03 0
2.322554e+00 9.993056e-03 0
2.318070e+00 1.172387e-02 0
2.312814e+00 1.372711e-02 0
2.306661e+00 1.604747e-02 0
2.299463e+00 1.873190e-02 0
2.291045e+00 2.182082e-02 0
2.281196e+00 2.532775e-02 0
2.269678e+00 2.919721e-02 0
2.256239e+00 3.322661e-02 0
2.240684e+00 3.694463e-02 0
2.223060e+00 3.948851e-02 0
2.204068e+00 3.967785e-02 0
2.185610e+00 3.671420e-02 0
2.170182e+00 3.124454e-02 0
2.158426e+00 2.486783e-02 0
2.149899e+00 1.881230e-02 0
2.143879e+00 1.365833e-02 0
2.139713e+00 9.535255e-03 0
2.136891e+00 6.349782e-03 0
2.135040e+00 3.928682e-03 0
2.133886e+00 2.088738e-03 0
2.133203e+00 6.787059e-04 0
2.132732e+00 -4.128671e-04 0
2.132397e+00 -1.239323e-03 0
2.132148e+00 -1.821146e-03 0
2.131951e+00 -2.192487e-03 0
2.131781e+00 -2.388759e-03 0
2.131618e+00 -2.442611e-03 0
2.131446e+00 -2.382713e-03 0
2.131255e+00 -2.233622e-03 0
2.131034e+00 -2.016098e-03 0
2.130774e+00 -1.747588e-03 0
2.130470e+00 -1.442741e-03 0
2.130117e+00 -1.113953e-03 0
2.129712e+00 -7.716552e-04 0
2.129258e+00 -4.264934e-04 0
2.128764e+00 -1.010867e-04 0
2.128236e+00 1.882302e-04 0
2.127670e+00 4.461998e-04 0
2.127051e+00 6.799185e-04 0
2.126358e+00 8.919498e-04 0
2.125589e+00 1.084391e-03 0
2.124746e+00 1.261217e-03 0
2.123835e+00 1.425264e-03 0
2.122858e+00 1.578381e-03 0
2.121819e+00 1.721790e-03 0
2.120723e+00 1.856333e-03 0
2.119572e+00 1.982639e-03 0
2.118369e+00 2.101233e-03 0
2.117117e+00 2.212594e-03 0
2.115820e+00 2.317164e-03 0
2.114479e+00 2.415345e-03 0
2.113097e+00 2.507491e-03 0
2.111677e+00 2.593921e-03 0
2.110221e+00 2.674930e-03 0
2.108730e+00 2.750803e-03 0
2.107207e+00 2.821812e-03 0
2.105654e+00 2.888213e-03 0
2.104073e+00 2.950239e-03 0
2.102465e+00 3.008108e-03 0
2.100832e+00 3.062030e-03 0
2.099175e+00 3.112216e-03 0
2.097496e+00 3.158876e-03 0
2.095796e+00 3.202215e-03 0
2.094077e+00 3.242424e-03 0
2.092340e+00 3.279671e-03 0
2.090585e+00 3.314103e-03 0
2.088815e+00 3.345852e-03 0
2.087030e+00 3.375039e-03 0
2.085231e+00 3.401791e-03 0
2.083419e+00 3.426243e-03 0
2.081595e+00 3.448534e-03 0
2.079760e+00 3.468799e-03 0
2.077915e+00 3.487156e-03 0
2.076060e+00 3.503702e-03 0
2.074196e+00 3.518515e-03 0
2.072324e+00 3.531666e-03 0
2.070444e+00 3.543229e-03 0
2.068558e+00 3.553286e-03 0
2.066665e+00 3.561921e-03 0
2.064766e+00 3.569218e-03 0
2.062862e+00 3.575250e-03 0
2.060954e+00 3.580081e-03 0
2.059041e+00 3.583766e-03 0
2.057124e+00 3.586351e-03 0
2.055204e+00 3.587882e-03 0
2.053282e+00 3.588401e-03 0
2.051356e+00 3.587951e-03 0
2.049429e+00 3.586576e-03 0
2.047500e+00 3.584320e-03 0
2.045570e+00 3.581224e-03 0
2.043638e+00 3.577323e-03 0
2.041706e+00 3.572648e-03 0
2.039774e+00 3.567221e-03 0
2.037841e+00 3.561063e-03 0
2.035909e+00 3.554193e-03 0
2.033977e+00 3.546629e-03 0
2.032047e+00 3.538390e-03 0
2.030117e+00 3.529494e-03 0
2.028189e+00 3.519957e-03 0
2.026262e+00 3.509795e-03 0
2.024337e+00 3.499018e-03 0
2.022415e+00 3.487635e-03 0
2.020495e+00 3.475651e-03 0
2.018578e+00 3.463068e-03 0
2.016664e+00 3.449888e-03 0
2.014753e+00 3.436110e-03 0
2.012846e+00 3.421735e-03 0
2.010942e+00 3.406761e-03 0
2.009042e+00 3.391187e-03 0
2.007147e+00 3.375007e-03 0
2.005257e+00 3.358216e-03 0
2.003371e+00 3.340806e-03 0
2.001491e+00 3.322767e-03 0
1.999615e+00 3.304088e-03 0
1.997746e+00 3.284755e-03 0
1.995883e+00 3.264753e-03 0
1.994026e+00 3.244065e-03 0
1.992175e+00 3.222669e-03 0
1.990332e+00 3.200540e-03 0
1.988496e+00 3.177645e-03 0
1.986668e+00 3.153944e-03 0
1.984847e+00 3.129385e-03 0
1.983035e+00 3.103897e-03 0
1.981232e+00 3.077386e-03 0
1.979438e+00 3.049720e-03 0
1.977654e+00 3.020716e-03 0
1.975881e+00 2.990108e-03 0
1.974118e+00 2.957507e-03 0
1.972368e+00 2.922338e-03 0
1.970630e+00 2.883706e-03 0
1.968908e+00 2.840204e-03 0
1.967201e+00 2.789473e-03 0
1.965513e+00 2.727460e-03 0
1.963846e+00 2.646810e-03 0
1.962200e+00 2.536438e-03 0
1.960531e+00 2.528075e-03 0
1.960531e+00 2.583899e-03 0
2.739121e+00 -2.009443e-04 0
2.739121e+00 -1.942073e-04 0
2.739181e+00 -1.643296e-04 0
2.739232e+00 -1.010671e-04 0
2.739268e+00 -3.446600e-06 0
2.739281e+00 1.307341e-04 0
2.739262e+00 3.053346e-04 0
2.739204e+00 5.250441e-04 0
2.739094e+00 7.956265e-04 0
2.738922e+00 1.123816e-03 0
2.738673e+00 1.517292e-03 0
2.738333e+00 1.984718e-03 0
2.737884e+00 2.535853e-03 0
2.737307e+00 3.181646e-03 0
2.736579e+00 3.934442e-03 0
2.735675e+00 4.808252e-03 0
2.734568e+00 5.819161e-03 0
2.733225e+00 6.985870e-03 0
2.731613e+00 8.330388e-03 0
2.729689e+00 9.878963e-03 0
2.727410e+00 1.166313e-02 0
2.724722e+00 1.372115e-02 0
2.721565e+00 1.609954e-02 0
2.717865e+00 1.885452e-02 0
2.713534e+00 2.205304e-02 0
2.708461e+00 2.577194e-02 0
2.702498e+00 3.009229e-02 0
2.695441e+00 3.508205e-02 0
2.686993e+00 4.075080e-02 0
2.676712e+00 4.694306e-02 0
2.663960e+00 5.311042e-02 0
2.648001e+00 5.791447e-02 0
2.628722e+00 5.890181e-02 0
2.609084e+00 5.386051e-02 0
2.595041e+00 4.433783e-02 0
2.586280e+00 3.405370e-02 0
2.581046e+00 2.501911e-02 0
2.577927e+00 1.779072e-02 0
2.576053e+00 1.226145e-02 0
2.574927e+00 8.122427e-03 0
2.574263e+00 5.054138e-03 0
2.573886e+00 2.788565e-03 0
2.573668e+00 1.127159e-03 0
2.573520e+00 -8.464287e-05 0
2.573374e+00 -9.560178e-04 0
2.573205e+00 -1.549926e-03 0
2.573002e+00 -1.917137e-03 0
2.572765e+00 -2.100236e-03 0
2.572493e+00 -2.135168e-03 0
2.572189e+00 -2.052227e-03 0
2.571854e+00 -1.876887e-03 0
2.571490e+00 -1.630523e-03 0
2.571097e+00 -1.331021e-03 0
2.570676e+00 -9.933788e-04 0
2.570226e+00 -6.306243e-04 0
2.569750e+00 -2.583450e-04 0
2.569253e+00 1.055920e-04 0
2.568733e+00 4.566476e-04 0
2.568176e+00 7.956208e-04 0
2.567571e+00 1.116660e-03 0
2.566914e+00 1.416798e-03 0
2.566204e+00 1.695967e-03 0
2.565439e+00 1.955334e-03 0
2.564621e+00 2.197008e-03 0
2.563751e+00 2.422999e-03 0
2.562832e+00 2.634913e-03 0
2.561866e+00 2.833975e-03 0
2.560856e+00 3.021132e-03 0
2.559803e+00 3.197164e-03 0
2.558710e+00 3.362757e-03 0
2.557579e+00 3.518543e-03 0
2.556413e+00 3.665097e-03 0
2.555212e+00 3.802934e-03 0
2.553980e+00 3.932523e-03 0
2.552718e+00 4.054292e-03 0
2.551427e+00 4.168651e-03 0
2.550109e+00 4.275988e-03 0
2.548765e+00 4.376673e-03 0
2.547398e+00 4.471049e-03 0
2.546008e+00 4.559434e-03 0
2.544596e+00 4.642133e-03 0
2.543164e+00 4.719440e-03 0
2.541713e+00 4.791649e-03 0
2.540244e+00 4.859042e-03 0
2.538759e+00 4.921889e-03 0
2.537257e+00 4.980437e-03 0
2.535741e+00 5.034910e-03 0
2.534210e+00 5.085508e-03 0
2.532666e+00 5.132417e-03 0
2.531110e+00 5.175821e-03 0
2.529542e+00 5.215902e-03 0
2.527963e+00 5.252849e-03 0
2.526373e+00 5.286845e-03 0
2.524774e+00 5.318060e-03 0
2.523166e+00 5.346641e-03 0
2.521549e+00 5.372715e-03 0
2.519925e+00 5.396395e-03 0
2.518292e+00 5.417790e-03 0
2.516653e+00 5.437010e-03 0
2.515008e+00 5.454171e-03 0
2.513356e+00 5.469385e-03 0
2.511699e+00 5.482759e-03 0
2.510037e+00 5.494386e-03 0
2.508369e+00 5.504349e-03 0
2.506698e+00 5.512721e-03 0
2.505022e+00 5.519570e-03 0
2.503343e+00 5.524960e-03 0
2.501660e+00 5.528953e-03 0
2.499974e+00 5.531610e-03 0
2.498285e+00 5.532992e-03 0
2.496594e+00 5.533155e-03 0
2.494900e+00 5.532152e-03 0
2.493205e+00 5.530028e-03 0
2.491507e+00 5.526821e-03 0
2.489809e+00 5.522565e-03 0
2.488109e+00 5.517287e-03 0
2.486407e+00 5.511015e-03 0
2.484706e+00 5.503776e-03 0
2.483003e+00 5.495597e-03 0
2.481300e+00 5.486501e-03 0
2.479598e+00 5.476509e-03 0
2.477895e+00 5.465638e-03 0
2.476192e+00 5.453903e-03 0
2.474490e+00 5.441310e-03 0
2.472789e+00 5.427867e-03 0
2.471088e+00 5.413577e-03 0
2.469389e+00 5.398441e-03 0
2.467691e+00 5.382460e-03 0
2.465995e+00 5.365634e-03 0
2.464300e+00 5.347961e-03 0
2.462607e+00 5.329436e-03 0
2.460916e+00 5.310052e-03 0
2.459228e+00 5.289798e-03 0
2.457542e+00 5.268661e-03 0
2.455859e+00 5.246628e-03 0
2.454179e+00 5.223680e-03 0
2.452502e+00 5.199800e-03 0
2.450829e+00 5.174966e-03 0
2.449160e+00 5.149153e-03 0
2.447494e+00 5.122331e-03 0
2.445833e+00 5.094465e-03 0
2.444176e+00 5.065510e-03 0
2.442524e+00 5.035412e-03 0
2.440877e+00 5.004101e-03 0
2.439235e+00 4.971484e-03 0
2.437598e+00 4.937440e-03 0
2.435968e+00 4.901798e-03 0
2.434344e+00 4.864324e-03 0
2.432727e+00 4.824683e-03 0
2.431116e+00 4.782400e-03 0
2.429513e+00 4.736778e-03 0
2.427918e+00 4.686793e-03 0
2.426332e+00 4.630922e-03 0
2.424753e+00 4.566901e-03 0
2.423183e+00 4.491499e-03 0
2.421620e+00 4.400670e-03 0
2.420057e+00 4.290503e-03 0
2.418483e+00 4.185666e-03 0
2.418483e+00 4.141185e-03 0
2.943124e+00 -2.739549e-04 0
2.943124e+00 -2.648488e-04 0
2.943194e+00 -2.286630e-04 0
2.943258e+00 -1.554519e-04 0
2.943313e+00 -4.253697e-05 0
2.943355e+00 1.134889e-04 0
2.943378e+00 3.170361e-04 0
2.943378e+00 5.738985e-04 0
2.943346e+00 8.910424e-04 0
2.943276e+00 1.276576e-03 0
2.943157e+00 1.739741e-03 0
2.942980e+00 2.290955e-03 0
2.942732e+00 2.941854e-03 0
2.942399e+00 3.705419e-03 0
2.941967e+00 4.596162e-03 0
2.941418e+00 5.630434e-03 0
2.940733e+00 6.826882e-03 0
2.939892e+00 8.207028e-03 0
2.938872e+00 9.796128e-03 0
2.937649e+00 1.162417e-02 0
2.936195e+00 1.372736e-02 0
2.934481e+00 1.615000e-02 0
2.932471e+00 1.894677e-02 0
2.930126e+00 2.218591e-02 0
2.927395e+00 2.595316e-02 0
2.924211e+00 3.035707e-02 0
2.920471e+00 3.553526e-02 0
2.916009e+00 4.165896e-02 0
2.910519e+00 4.892488e-02 0
2.903410e+00 5.748904e-02 0
2.893483e+00 6.718746e-02 0
2.878435e+00 7.660491e-02 0
2.854734e+00 8.066936e-02 0
2.826605e+00 7.219123e-02 0
2.813482e+00 5.526481e-02 0
2.808935e+00 3.961025e-02 0
2.807992e+00 2.761169e-02 0
2.808334e+00 1.891759e-02 0
2.809030e+00 1.269505e-02 0
2.809745e+00 8.234477e-03 0
2.810370e+00 5.025107e-03 0
2.810877e+00 2.715619e-03 0
2.811252e+00 1.063640e-03 0
2.811509e+00 -1.033143e-04 0
2.811647e+00 -9.064556e-04 0
2.811675e+00 -1.428554e-03 0
2.811607e+00 -1.728965e-03 0
2.811458e+00 -1.853085e-03 0
2.811240e+00 -1.837043e-03 0
2.810966e+00 -1.710285e-03 0
2.810644e+00 -1.497158e-03 0
2.810282e+00 -1.217926e-03 0
2.809887e+00 -8.892933e-04 0
2.809463e+00 -5.244490e-04 0
2.809013e+00 -1.393262e-04 0
2.808541e+00 2.520197e-04 0
2.808044e+00 6.447510e-04 0
2.807515e+00 1.033888e-03 0
2.806953e+00 1.412541e-03 0
2.806358e+00 1.775692e-03 0
2.805727e+00 2.120370e-03 0
2.805059e+00 2.445519e-03 0
2.804352e+00 2.751358e-03 0
2.803607e+00 3.038901e-03 0
2.802825e+00 3.309404e-03 0
2.802007e+00 3.564057e-03 0
2.801154e+00 3.803900e-03 0
2.800268e+00 4.029839e-03 0
2.799350e+00 4.242691e-03 0
2.798402e+00 4.443218e-03 0
2.797426e+00 4.632124e-03 0
2.796423e+00 4.810055e-03 0