<?xml version="1.0"?>
<VTKFile type="StructuredGrid">
<StructuredGrid WholeExtent="0 158 0 30 0 0 ">
<Piece Extent="0 158 0 30 0 0 ">
<Points>
<DataArray type="Float64" format="ascii" NumberOfComponents="3">
0.000000e+00 0.000000e+00 0.000000e+00
3.164557e-02 0.000000e+00 0.000000e+00
6.329114e-02 0.000000e+00 0.000000e+00
9.493671e-02 0.000000e+00 0.000000e+00
1.265823e-01 0.000000e+00 0.000000e+00
1.582278e-01 0.000000e+00 0.000000e+00
1.898734e-01 0.000000e+00 0.000000e+00
2.215190e-01 0.000000e+00 0.000000e+00
2.531646e-01 0.000000e+00 0.000000e+00
2.848101e-01 0.000000e+00 0.000000e+00
3.164557e-01 0.000000e+00 0.000000e+00
3.481013e-01 0.000000e+00 0.000000e+00
3.797468e-01 0.000000e+00 0.000000e+00
4.113924e-01 0.000000e+00 0.000000e+00
4.430380e-01 0.000000e+00 0.000000e+00
4.746835e-01 0.000000e+00 0.000000e+00
5.063291e-01 0.000000e+00 0.000000e+00
5.379747e-01 0.000000e+00 0.000000e+00
5.696203e-01 0.000000e+00 0.000000e+00
6.012658e-01 0.000000e+00 0.000000e+00
6.329114e-01 0.000000e+00 0.000000e+00
6.645570e-01 0.000000e+00 0.000000e+00
6.962025e-01 0.000000e+00 0.000000e+00
7.278481e-01 0.000000e+00 0.000000e+00
7.594937e-01 0.000000e+00 0.000000e+00
7.911392e-01 0.000000e+00 0.000000e+00
8.227848e-01 0.000000e+00 0.000000e+00
8.544304e-01 0.000000e+00 0.000000e+00
8.860759e-01 0.000000e+00 0.000000e+00
9.177215e-01 0.000000e+00 0.000000e+00
9.493671e-01 0.000000e+00 0.000000e+00
9.810127e-01 0.000000e+00 0.000000e+00
1.012658e+00 0.000000e+00 0.000000e+00
1.044304e+00 0.000000e+00 0.000000e+00
1.075949e+00 0.000000e+00 0.000000e+00
1.107595e+00 0.000000e+00 0.000000e+00
1.139241e+00 0.000000e+00 0.000000e+00
1.170886e+00 0.000000e+00 0.000000e+00
1.202532e+00 0.000000e+00 0.000000e+00
1.234177e+00 0.000000e+00 0.000000e+00
1.265823e+00 0.000000e+00 0.000000e+00
1.297468e+00 0.000000e+00 0.000000e+00
1.329114e+00 0.000000e+00 0.000000e+00
1.360759e+00 0.000000e+00 0.000000e+00
1.392405e+00 0.000000e+00 0.000000e+00
1.424051e+00 0.000000e+00 0.000000e+00
1.455696e+00 0.000000e+00 0.000000e+00
1.487342e+00 0.000000e+00 0.000000e+00
1.518987e+00 0.000000e+00 0.000000e+00
1.550633e+00 0.000000e+00 0.000000e+00
1.582278e+00 0.000000e+00 0.000000e+00
1.613924e+00 0.000000e+00 0.000000e+00
1.645570e+00 0.000000e+00 0.000000e+00
1.677215e+00 0.000000e+00 0.000000e+00
1.708861e+00 0.000000e+00 0.000000e+00
1.740506e+00 0.000000e+00 0.000000e+00
1.772152e+00 0.000000e+00 0.000000e+00
1.803797e+00 0.000000e+00 0.000000e+00
1.835443e+00 0.000000e+00 0.000000e+00
1.867089e+00 0.000000e+00 0.000000e+00
1.898734e+00 0.000000e+00 0.000000e+00
1.930380e+00 0.000000e+00 0.000000e+00
1.962025e+00 0.000000e+00 0.000000e+00
1.993671e+00 0.000000e+00 0.000000e+00
2.025316e+00 0.000000e+00 0.000000e+00
2.056962e+00 0.000000e+00 0.000000e+00
2.088608e+00 0.000000e+00 0.000000e+00
2.120253e+00 0.000000e+00 0.000000e+00
2.151899e+00 0.000000e+00 0.000000e+00
2.183544e+00 0.000000e+00 0.000000e+00
2.215190e+00 0.000000e+00 0.000000e+00
2.246835e+00 0.000000e+00 0.000000e+00
2.278481e+00 0.000000e+00 0.000000e+00
2.310127e+00 0.000000e+00 0.000000e+00
2.341772e+00 0.000000e+00 0.000000e+00
2.373418e+00 0.000000e+00 0.000000e+00
2.405063e+00 0.000000e+00 0.000000e+00
2.436709e+00 0.000000e+00 0.000000e+00
2.468354e+00 0.000000e+00 0.000000e+00
2.500000e+00 0.000000e+00 0.000000e+00
2.531646e+00 0.000000e+00 0.000000e+00
2.563291e+00 0.000000e+00 0.000000e+00
2.594937e+00 0.000000e+00 0.000000e+00
2.626582e+00 0.000000e+00 0.000000e+00
2.658228e+00 0.000000e+00 0.000000e+00
2.689873e+00 0.000000e+00 0.000000e+00
2.721519e+00 0.000000e+00 0.000000e+00
2.753165e+00 0.000000e+00 0.000000e+00
2.784810e+00 0.000000e+00 0.000000e+00
2.816456e+00 0.000000e+00 0.000000e+00
2.848101e+00 0.000000e+00 0.000000e+00
2.879747e+00 0.000000e+00 0.000000e+00
2.911392e+00 0.000000e+00 0.000000e+00
2.943038e+00 0.000000e+00 0.000000e+00
2.974684e+00 0.000000e+00 0.000000e+00
3.006329e+00 0.000000e+00 0.000000e+00
3.037975e+00 0.000000e+00 0.000000e+00
3.069620e+00 0.000000e+00 0.000000e+00
3.101266e+00 0.000000e+00 0.000000e+00
3.132911e+00 0.000000e+00 0.000000e+00
3.164557e+00 0.000000e+00 0.000000e+00
3.196203e+00 0.000000e+00 0.000000e+00
3.227848e+00 0.000000e+00 0.000000e+00
3.259494e+00 0.000000e+00 0.000000e+00
3.291139e+00 0.000000e+00 0.000000e+00
3.322785e+00 0.000000e+00 0.000000e+00
3.354430e+00 0.000000e+00 0.000000e+00
3.386076e+00 0.000000e+00 0.000000e+00
3.417722e+00 0.000000e+00 0.000000e+00
3.449367e+00 0.000000e+00 0.000000e+00
3.481013e+00 0.000000e+00 0.000000e+00
3.512658e+00 0.000000e+00 0.000000e+00
3.544304e+00 0.000000e+00 0.000000e+00
3.575949e+00 0.000000e+00 0.000000e+00
3.607595e+00 0.000000e+00 0.000000e+00
3.639241e+00 0.000000e+00 0.000000e+00
3.670886e+00 0.000000e+00 0.000000e+00
3.702532e+00 0.000000e+00 0.000000e+00
3.734177e+00 0.000000e+00 0.000000e+00
3.765823e+00 0.000000e+00 0.000000e+00
3.797468e+00 0.000000e+00 0.000000e+00
3.829114e+00 0.000000e+00 0.000000e+00
3.860759e+00 0.000000e+00 0.000000e+00
3.892405e+00 0.000000e+00 0.000000e+00
3.924051e+00 0.000000e+00 0.000000e+00
3.955696e+00 0.000000e+00 0.000000e+00
3.987342e+00 0.000000e+00 0.000000e+00
4.018987e+00 0.000000e+00 0.000000e+00
4.050633e+00 0.000000e+00 0.000000e+00
4.082278e+00 0.000000e+00 0.000000e+00
4.113924e+00 0.000000e+00 0.000000e+00
4.145570e+00 0.000000e+00 0.000000e+00
4.177215e+00 0.000000e+00 0.000000e+00
4.208861e+00 0.000000e+00 0.000000e+00
4.240506e+00 0.000000e+00 0.000000e+00
4.272152e+00 0.000000e+00 0.000000e+00
4.303797e+00 0.000000e+00 0.000000e+00
4.335443e+00 0.000000e+00 0.000000e+00
4.367089e+00 0.000000e+00 0.000000e+00
4.398734e+00 0.000000e+00 0.000000e+00
4.430380e+00 0.000000e+00 0.000000e+00
4.462025e+00 0.000000e+00 0.000000e+00
4.493671e+00 0.000000e+00 0.000000e+00
4.525316e+00 0.000000e+00 0.000000e+00
4.556962e+00 0.000000e+00 0.000000e+00
4.588608e+00 0.000000e+00 0.000000e+00
4.620253e+00 0.000000e+00 0.000000e+00
4.651899e+00 0.000000e+00 0.000000e+00
4.683544e+00 0.000000e+00 0.000000e+00
4.715190e+00 0.000000e+00 0.000000e+00
4.746835e+00 0.000000e+00 0.000000e+00
4.778481e+00 0.000000e+00 0.000000e+00
4.810127e+00 0.000000e+00 0.000000e+00
4.841772e+00 0.000000e+00 0.000000e+00
4.873418e+00 0.000000e+00 0.000000e+00
4.905063e+00 0.000000e+00 0.000000e+00
4.936709e+00 0.000000e+00 0.000000e+00
4.968354e+00 0.000000e+00 0.000000e+00
5.000000e+00 0.000000e+00 0.000000e+00
0.000000e+00 3.333333e-02 0.000000e+00
3.164557e-02 3.333333e-02 0.000000e+00
6.329114e-02 3.333333e-02 0.000000e+00
9.493671e-02 3.333333e-02 0.000000e+00
1.265823e-01 3.333333e-02 0.000000e+00
1.582278e-01 3.333333e-02 0.000000e+00
1.898734e-01 3.333333e-02 0.000000e+00
2.215190e-01 3.333333e-02 0.000000e+00
2.531646e-01 3.333333e-02 0.000000e+00
2.848101e-01 3.333333e-02 0.000000e+00
3.164557e-01 3.333333e-02 0.000000e+00
3.481013e-01 3.333333e-02 0.000000e+00
3.797468e-01 3.333333e-02 0.000000e+00
4.113924e-01 3.333333e-02 0.000000e+00
4.430380e-01 3.333333e-02 0.000000e+00
4.746835e-01 3.333333e-02 0.000000e+00
5.063291e-01 3.333333e-02 0.000000e+00
5.379747e-01 3.333333e-02 0.000000e+00
5.696203e-01 3.333333e-02 0.000000e+00
6.012658e-01 3.333333e-02 0.000000e+00
6.329114e-01 3.333333e-02 0.000000e+00
6.645570e-01 3.333333e-02 0.000000e+00
6.962025e-01 3.333333e-02 0.000000e+00
7.278481e-01 3.333333e-02 0.000000e+00
7.594937e-01 3.333333e-02 0.000000e+00
7.911392e-01 3.333333e-02 0.000000e+00
8.227848e-01 3.333333e-02 0.000000e+00
8.544304e-01 3.333333e-02 0.000000e+00
8.860759e-01 3.333333e-02 0.000000e+00
9.177215e-01 3.333333e-02 0.000000e+00
9.493671e-01 3.333333e-02 0.000000e+00
9.810127e-01 3.333333e-02 0.000000e+00
1.012658e+00 3.333333e-02 0.000000e+00
1.044304e+00 3.333333e-02 0.000000e+00
1.075949e+00 3.333333e-02 0.000000e+00
1.107595e+00 3.333333e-02 0.000000e+00
1.139241e+00 3.333333e-02 0.000000e+00
1.170886e+00 3.333333e-02 0.000000e+00
1.202532e+00 3.333333e-02 0.000000e+00
1.234177e+00 3.333333e-02 0.000000e+00
1.265823e+00 3.333333e-02 0.000000e+00
1.297468e+00 3.333333e-02 0.000000e+00
1.329114e+00 3.333333e-02 0.000000e+00
1.360759e+00 3.333333e-02 0.000000e+00
1.392405e+00 3.333333e-02 0.000000e+00
1.424051e+00 3.333333e-02 0.000000e+00
1.455696e+00 3.333333e-02 0.000000e+00
1.487342e+00 3.333333e-02 0.000000e+00
1.518987e+00 3.333333e-02 0.000000e+00
1.550633e+00 3.333333e-02 0.000000e+00
1.582278e+00 3.333333e-02 0.000000e+00
1.613924e+00 3.333333e-02 0.000000e+00
1.645570e+00 3.333333e-02 0.000000e+00
1.677215e+00 3.333333e-02 0.000000e+00
1.708861e+00 3.333333e-02 0.000000e+00
1.740506e+00 3.333333e-02 0.000000e+00
1.772152e+00 3.333333e-02 0.000000e+00
1.803797e+00 3.333333e-02 0.000000e+00
1.835443e+00 3.333333e-02 0.000000e+00
1.867089e+00 3.333333e-02 0.000000e+00
1.898734e+00 3.333333e-02 0.000000e+00
1.930380e+00 3.333333e-02 0.000000e+00
1.962025e+00 3.333333e-02 0.000000e+00
1.993671e+00 3.333333e-02 0.000000e+00
2.025316e+00 3.333333e-02 0.000000e+00
2.056962e+00 3.333333e-02 0.000000e+00
2.088608e+00 3.333333e-02 0.000000e+00
2.120253e+00 3.333333e-02 0.000000e+00
2.151899e+00 3.333333e-02 0.000000e+00
2.183544e+00 3.333333e-02 0.000000e+00
2.215190e+00 3.333333e-02 0.000000e+00
2.246835e+00 3.333333e-02 0.000000e+00
2.278481e+00 3.333333e-02 0.000000e+00
2.310127e+00 3.333333e-02 0.000000e+00
2.341772e+00 3.333333e-02 0.000000e+00
2.373418e+00 3.333333e-02 0.000000e+00
2.405063e+00 3.333333e-02 0.000000e+00
2.436709e+00 3.333333e-02 0.000000e+00
2.468354e+00 3.333333e-02 0.000000e+00
2.500000e+00 3.333333e-02 0.000000e+00
2.531646e+00 3.333333e-02 0.000000e+00
2.563291e+00 3.333333e-02 0.000000e+00
2.594937e+00 3.333333e-02 0.000000e+00
2.626582e+00 3.333333e-02 0.000000e+00
2.658228e+00 3.333333e-02 0.000000e+00
2.689873e+00 3.333333e-02 0.000000e+00
2.721519e+00 3.333333e-02 0.000000e+00
2.753165e+00 3.333333e-02 0.000000e+00
2.784810e+00 3.333333e-02 0.000000e+00
2.816456e+00 3.333333e-02 0.000000e+00
2.848101e+00 3.333333e-02 0.000000e+00
2.879747e+00 3.333333e-02 0.000000e+00
[...]
<PointData>
<DataArray Name="Velocity" type="Float64" format="ascii" NumberOfComponents="3">
0.000000e+00 0.000000e+00 0
0.000000e+00 0.000000e+00 0
0.000000e+00 0.000000e+00 0
0.000000e+00 0.000000e+00 0
0.000000e+00 0.000000e+00 0
0.000000e+00 0.000000e+00 0
0.000000e+00 0.000000e+00 0
0.000000e+00 0.000000e+00 0
0.000000e+00 0.000000e+00 0
0.000000e+00 0.000000e+00 0
0.000000e+00 0.000000e+00 0
0.000000e+00 0.000000e+00 0
0.000000e+00 0.000000e+00 0
0.000000e+00 0.000000e+00 0
0.000000e+00 0.000000e+00 0
0.000000e+00 0.000000e+00 0
0.000000e+00 0.000000e+00 0
0.000000e+00 0.000000e+00 0
0.000000e+00 0.000000e+00 0
-2.786487e-17 0.000000e+00 0
0.000000e+00 0.000000e+00 0
0.000000e+00 0.000000e+00 0
0.000000e+00 0.000000e+00 0
4.650626e-17 0.000000e+00 0
0.000000e+00 0.000000e+00 0
0.000000e+00 0.000000e+00 0
0.000000e+00 0.000000e+00 0
-2.094137e-17 0.000000e+00 0
0.000000e+00 0.000000e+00 0
0.000000e+00 0.000000e+00 0
0.000000e+00 0.000000e+00 0
-1.951205e-17 0.000000e+00 0
0.000000e+00 0.000000e+00 0
0.000000e+00 0.000000e+00 0
0.000000e+00 0.000000e+00 0
0.000000e+00 0.000000e+00 0
0.000000e+00 0.000000e+00 0
0.000000e+00 0.000000e+00 0
-7.341748e-18 0.000000e+00 0
0.000000e+00 0.000000e+00 0
0.000000e+00 0.000000e+00 0
0.000000e+00 0.000000e+00 0
0.000000e+00 0.000000e+00 0
0.000000e+00 0.000000e+00 0
0.000000e+00 0.000000e+00 0
0.000000e+00 0.000000e+00 0
-7.873249e-19 0.000000e+00 0
0.000000e+00 0.000000e+00 0
0.000000e+00 0.000000e+00 0
0.000000e+00 0.000000e+00 0
0.000000e+00 0.000000e+00 0
0.000000e+00 0.000000e+00 0
0.000000e+00 0.000000e+00 0
0.000000e+00 0.000000e+00 0
-1.173483e-17 0.000000e+00 0
0.000000e+00 0.000000e+00 0
0.000000e+00 0.000000e+00 0
0.000000e+00 0.000000e+00 0
0.000000e+00 0.000000e+00 0
0.000000e+00 0.000000e+00 0
0.000000e+00 0.000000e+00 0
0.000000e+00 0.000000e+00 0
-7.801503e-18 0.000000e+00 0
0.000000e+00 0.000000e+00 0
0.000000e+00 0.000000e+00 0
0.000000e+00 0.000000e+00 0
0.000000e+00 0.000000e+00 0
0.000000e+00 0.000000e+00 0
0.000000e+00 0.000000e+00 0
0.000000e+00 0.000000e+00 0
0.000000e+00 0.000000e+00 0
0.000000e+00 0.000000e+00 0
0.000000e+00 0.000000e+00 0
0.000000e+00 0.000000e+00 0
0.000000e+00 0.000000e+00 0
0.000000e+00 0.000000e+00 0
0.000000e+00 0.000000e+00 0
0.000000e+00 0.000000e+00 0
0.000000e+00 0.000000e+00 0
0.000000e+00 0.000000e+00 0
0.000000e+00 0.000000e+00 0
0.000000e+00 0.000000e+00 0
0.000000e+00 0.000000e+00 0
0.000000e+00 0.000000e+00 0
0.000000e+00 0.000000e+00 0
0.000000e+00 0.000000e+00 0
0.000000e+00 0.000000e+00 0
0.000000e+00 0.000000e+00 0
0.000000e+00 0.000000e+00 0
0.000000e+00 0.000000e+00 0
0.000000e+00 0.000000e+00 0
0.000000e+00 0.000000e+00 0
0.000000e+00 0.000000e+00 0
0.000000e+00 0.000000e+00 0
0.000000e+00 0.000000e+00 0
0.000000e+00 0.000000e+00 0
0.000000e+00 0.000000e+00 0
0.000000e+00 0.000000e+00 0
0.000000e+00 0.000000e+00 0
0.000000e+00 0.000000e+00 0
0.000000e+00 0.000000e+00 0
0.000000e+00 0.000000e+00 0
0.000000e+00 0.000000e+00 0
0.000000e+00 0.000000e+00 0
0.000000e+00 0.000000e+00 0
0.000000e+00 0.000000e+00 0
0.000000e+00 0.000000e+00 0
0.000000e+00 0.000000e+00 0
0.000000e+00 0.000000e+00 0
0.000000e+00 0.000000e+00 0
0.000000e+00 0.000000e+00 0
0.000000e+00 0.000000e+00 0
0.000000e+00 0.000000e+00 0
0.000000e+00 0.000000e+00 0
0.000000e+00 0.000000e+00 0
0.000000e+00 0.000000e+00 0
0.000000e+00 0.000000e+00 0
0.000000e+00 0.000000e+00 0
0.000000e+00 0.000000e+00 0
0.000000e+00 0.000000e+00 0
0.000000e+00 0.000000e+00 0
0.000000e+00 0.000000e+00 0
0.000000e+00 0.000000e+00 0
0.000000e+00 0.000000e+00 0
0.000000e+00 0.000000e+00 0
0.000000e+00 0.000000e+00 0
0.000000e+00 0.000000e+00 0
0.000000e+00 0.000000e+00 0
0.000000e+00 0.000000e+00 0
0.000000e+00 0.000000e+00 0
0.000000e+00 0.000000e+00 0
0.000000e+00 0.000000e+00 0
0.000000e+00 0.000000e+00 0
0.000000e+00 0.000000e+00 0
0.000000e+00 0.000000e+00 0
0.000000e+00 0.000000e+00 0
0.000000e+00 0.000000e+00 0
0.000000e+00 0.000000e+00 0
0.000000e+00 0.000000e+00 0
0.000000e+00 0.000000e+00 0
0.000000e+00 0.000000e+00 0
0.000000e+00 0.000000e+00 0
0.000000e+00 0.000000e+00 0
0.000000e+00 0.000000e+00 0
0.000000e+00 0.000000e+00 0
0.000000e+00 0.000000e+00 0
0.000000e+00 0.000000e+00 0
0.000000e+00 0.000000e+00 0
0.000000e+00 0.000000e+00 0
0.000000e+00 0.000000e+00 0
0.000000e+00 0.000000e+00 0
0.000000e+00 0.000000e+00 0
0.000000e+00 0.000000e+00 0
0.000000e+00 0.000000e+00 0
0.000000e+00 0.000000e+00 0
0.000000e+00 0.000000e+00 0
0.000000e+00 0.000000e+00 0
0.000000e+00 0.000000e+00 0
0.000000e+00 0.000000e+00 0
1.659098e+00 -5.431271e-05 0
1.659098e+00 -5.831898e-05 0
1.659146e+00 -5.369909e-05 0
1.659179e+00 -2.846386e-05 0
1.659186e+00 8.564454e-06 0
1.659154e+00 5.535750e-05 0
1.659072e+00 1.151691e-04 0
1.658927e+00 1.900719e-04 0
1.658703e+00 2.820793e-04 0
1.658382e+00 3.933744e-04 0
1.657946e+00 5.264091e-04 0
1.657371e+00 6.840201e-04 0
1.656634e+00 8.693985e-04 0
1.655707e+00 1.086107e-03 0
1.654557e+00 1.338223e-03 0
1.653149e+00 1.630314e-03 0
1.651443e+00 1.967532e-03 0
1.649393e+00 2.355962e-03 0
1.646946e+00 2.802810e-03 0
1.644045e+00 3.316595e-03 0
1.640619e+00 3.907562e-03 0
1.636591e+00 4.588034e-03 0
1.631869e+00 5.372640e-03 0
1.626346e+00 6.278413e-03 0
1.619897e+00 7.324407e-03 0
1.612377e+00 8.530013e-03 0
1.603622e+00 9.910508e-03 0
1.593453e+00 1.146739e-02 0
1.581694e+00 1.316923e-02 0
1.568213e+00 1.491849e-02 0
1.553009e+00 1.650554e-02 0
1.536351e+00 1.757413e-02 0
1.518974e+00 1.767446e-02 0
1.502158e+00 1.651632e-02 0
1.487320e+00 1.429658e-02 0
1.475187e+00 1.157937e-02 0
1.465808e+00 8.882731e-03 0
1.458859e+00 6.506894e-03 0
1.453893e+00 4.558280e-03 0
1.450476e+00 3.027289e-03 0
1.448238e+00 1.850543e-03 0
1.446888e+00 9.419074e-04 0
1.446214e+00 1.407880e-04 0
1.446050e+00 -5.838137e-04 0
1.446292e+00 -1.146528e-03 0
1.446832e+00 -1.551565e-03 0
1.447577e+00 -1.816039e-03 0
1.448444e+00 -1.961168e-03 0
1.449369e+00 -2.008157e-03 0
1.450297e+00 -1.976416e-03 0
1.451186e+00 -1.882927e-03 0
1.452002e+00 -1.742191e-03 0
1.452721e+00 -1.566405e-03 0
1.453324e+00 -1.365736e-03 0
1.453797e+00 -1.148503e-03 0
1.454132e+00 -9.211578e-04 0
1.454326e+00 -6.887448e-04 0
1.454381e+00 -4.530971e-04 0
1.454316e+00 -2.304276e-04 0
1.454144e+00 -5.258736e-05 0
1.453873e+00 7.513710e-05 0
1.453512e+00 1.745284e-04 0
1.453070e+00 2.611219e-04 0
1.452553e+00 3.398801e-04 0
1.451966e+00 4.127516e-04 0
1.451314e+00 4.806789e-04 0
1.450601e+00 5.442092e-04 0
1.449830e+00 6.037146e-04 0
1.449006e+00 6.594855e-04 0
1.448131e+00 7.117711e-04 0
1.447208e+00 7.607910e-04 0
1.446241e+00 8.067334e-04 0
1.445231e+00 8.497528e-04 0
1.444182e+00 8.899791e-04 0
1.443097e+00 9.275336e-04 0
1.441977e+00 9.625463e-04 0
1.440824e+00 9.951602e-04 0
1.439642e+00 1.025521e-03 0
1.438431e+00 1.053760e-03 0
1.437194e+00 1.079984e-03 0
1.435932e+00 1.104278e-03 0
1.434648e+00 1.126725e-03 0
1.433343e+00 1.147416e-03 0
1.432018e+00 1.166457e-03 0
1.430675e+00 1.183953e-03 0
1.429315e+00 1.199995e-03 0
1.427940e+00 1.214655e-03 0
1.426551e+00 1.227989e-03 0
1.425148e+00 1.240056e-03 0
1.423734e+00 1.250922e-03 0
1.422309e+00 1.260664e-03 0
1.420874e+00 1.269352e-03 0
1.419430e+00 1.277049e-03 0
1.417979e+00 1.283802e-03 0
1.416520e+00 1.289653e-03 0
1.415055e+00 1.294640e-03 0
1.413584e+00 1.298809e-03 0
1.412108e+00 1.302206e-03 0
1.410629e+00 1.304877e-03 0
1.409145e+00 1.306864e-03 0
1.407659e+00 1.308203e-03 0
1.406171e+00 1.308926e-03 0
1.404681e+00 1.309065e-03 0
1.403190e+00 1.308650e-03 0
1.401698e+00 1.307707e-03 0
1.400205e+00 1.306263e-03 0
1.398714e+00 1.304337e-03 0
1.397222e+00 1.301953e-03 0
1.395732e+00 1.299133e-03 0
1.394243e+00 1.295901e-03 0
1.392757e+00 1.292282e-03 0
1.391272e+00 1.288293e-03 0
1.389790e+00 1.283951e-03 0
1.388311e+00 1.279267e-03 0
1.386835e+00 1.274252e-03 0
1.385363e+00 1.268918e-03 0
1.383894e+00 1.263277e-03 0
1.382430e+00 1.257343e-03 0
1.380970e+00 1.251126e-03 0
1.379514e+00 1.244634e-03 0
1.378064e+00 1.237875e-03 0
1.376618e+00 1.230855e-03 0
1.375178e+00 1.223581e-03 0
1.373744e+00 1.216059e-03 0
1.372316e+00 1.208294e-03 0
1.370894e+00 1.200292e-03 0
1.369478e+00 1.192054e-03 0
1.368068e+00 1.183583e-03 0
1.366666e+00 1.174879e-03 0
1.365271e+00 1.165944e-03 0
1.363883e+00 1.156777e-03 0
1.362502e+00 1.147380e-03 0
1.361129e+00 1.137753e-03 0
1.359764e+00 1.127895e-03 0
1.358408e+00 1.117805e-03 0
1.357059e+00 1.107479e-03 0
1.355720e+00 1.096916e-03 0
1.354389e+00 1.086110e-03 0
1.353068e+00 1.075058e-03 0
1.351756e+00 1.063752e-03 0
1.350453e+00 1.052185e-03 0
1.349161e+00 1.040347e-03 0
1.347878e+00 1.028225e-03 0
1.346607e+00 1.015800e-03 0
1.345346e+00 1.003046e-03 0
1.344096e+00 9.899251e-04 0
1.342857e+00 9.763878e-04 0
1.341631e+00 9.623566e-04 0
1.340417e+00 9.477208e-04 0
1.339216e+00 9.323148e-04 0
1.338030e+00 9.158841e-04 0
1.336858e+00 8.980293e-04 0
1.335703e+00 8.780888e-04 0
1.334567e+00 8.548773e-04 0
1.333453e+00 8.258287e-04 0
1.332368e+00 7.861958e-04 0
1.331320e+00 6.896241e-04 0
1.330326e+00 7.983617e-04 0
1.330326e+00 9.804704e-04 0
2.559654e+00 -1.072775e-04 0
2.559654e+00 -1.047374e-04 0
2.559695e+00 -8.609269e-05 0
2.559723e+00 -4.178624e-05 0
2.559732e+00 2.638611e-05 0
2.559708e+00 1.191506e-04 0
2.559641e+00 2.390749e-04 0
2.559518e+00 3.894766e-04 0
2.559325e+00 5.741859e-04 0
2.559048e+00 7.975593e-04 0
2.558669e+00 1.064610e-03 0
2.558169e+00 1.381015e-03 0
2.557525e+00 1.753125e-03 0
2.556714e+00 2.188138e-03 0
2.555706e+00 2.694134e-03 0
2.554470e+00 3.280201e-03 0
2.552970e+00 3.956857e-03 0
2.551167e+00 4.736377e-03 0
2.549014e+00 5.633133e-03 0
2.546459e+00 6.664277e-03 0
2.543443e+00 7.850438e-03 0
2.539897e+00 9.216356e-03 0
2.535739e+00 1.079161e-02 0
2.530875e+00 1.261108e-02 0
2.525194e+00 1.471444e-02 0
2.518563e+00 1.714333e-02 0
2.510823e+00 1.993362e-02 0
2.501787e+00 2.309732e-02 0
2.491243e+00 2.658469e-02 0
2.478967e+00 3.021396e-02 0
2.464786e+00 3.356159e-02 0
2.448747e+00 3.585087e-02 0
2.431483e+00 3.601742e-02 0
2.414714e+00 3.334239e-02 0
2.400685e+00 2.840992e-02 0
2.389972e+00 2.265995e-02 0
2.382179e+00 1.719868e-02 0
2.376656e+00 1.254946e-02 0
2.372812e+00 8.829905e-03 0
2.370189e+00 5.957713e-03 0
2.368448e+00 3.779584e-03 0
2.367342e+00 2.131549e-03 0
2.366682e+00 8.829297e-04 0
2.366244e+00 -8.205907e-05 0
2.365937e+00 -8.242737e-04 0
2.365711e+00 -1.352920e-03 0
2.365535e+00 -1.697317e-03 0
2.365384e+00 -1.887520e-03 0
2.365240e+00 -1.951485e-03 0
2.365088e+00 -1.914006e-03 0
2.364918e+00 -1.796517e-03 0
2.364720e+00 -1.617279e-03 0
2.364487e+00 -1.391723e-03 0
2.364215e+00 -1.132890e-03 0
2.363899e+00 -8.517567e-04 0
2.363536e+00 -5.572546e-04 0
2.363134e+00 -2.617664e-04 0
2.362698e+00 1.016146e-05 0
2.362233e+00 2.497782e-04 0
2.361732e+00 4.671676e-04 0
2.361175e+00 6.653270e-04 0
2.360550e+00 8.454944e-04 0
2.359859e+00 1.010387e-03 0
2.359104e+00 1.162941e-03 0
2.358288e+00 1.305116e-03 0
2.357416e+00 1.438178e-03 0
2.356490e+00 1.562991e-03 0
2.355513e+00 1.680197e-03 0
2.354489e+00 1.790317e-03 0
2.353419e+00 1.893792e-03 0
2.352307e+00 1.991010e-03 0
2.351155e+00 2.082302e-03 0
2.349965e+00 2.167963e-03 0
2.348739e+00 2.248259e-03 0
2.347480e+00 2.323449e-03 0
2.346190e+00 2.393798e-03 0
2.344870e+00 2.459569e-03 0
2.343522e+00 2.521014e-03 0
2.342149e+00 2.578357e-03 0
2.340751e+00 2.631795e-03 0
2.339330e+00 2.681511e-03 0
2.337888e+00 2.727689e-03 0
2.336425e+00 2.770520e-03 0
2.334944e+00 2.810196e-03 0
2.333446e+00 2.846896e-03 0
2.331931e+00 2.880774e-03 0
2.330402e+00 2.911968e-03 0
2.328858e+00 2.940603e-03 0
2.327301e+00 2.966808e-03 0
2.325732e+00 2.990720e-03 0
2.324152e+00 3.012469e-03 0
2.322561e+00 3.032177e-03 0
2.320961e+00 3.049949e-03 0
2.319352e+00 3.065879e-03 0
2.317735e+00 3.080054e-03 0
2.316111e+00 3.092563e-03 0
2.314480e+00 3.103495e-03 0
2.312843e+00 3.112936e-03 0
2.311200e+00 3.120969e-03 0
2.309553e+00 3.127664e-03 0
2.307902e+00 3.133091e-03 0
2.306246e+00 3.137312e-03 0
2.304587e+00 3.140391e-03 0
2.302926e+00 3.142382e-03 0
2.301262e+00 3.143339e-03 0
2.299596e+00 3.143307e-03 0
2.297928e+00 3.142332e-03 0
2.296259e+00 3.140459e-03 0
2.294589e+00 3.137732e-03 0
2.292919e+00 3.134195e-03 0
2.291248e+00 3.129887e-03 0
2.289578e+00 3.124840e-03 0
2.287908e+00 3.119082e-03 0
2.286239e+00 3.112638e-03 0
2.284571e+00 3.105531e-03 0
2.282904e+00 3.097787e-03 0
2.281239e+00 3.089432e-03 0
2.279575e+00 3.080486e-03 0
2.277914e+00 3.070969e-03 0
2.276255e+00 3.060894e-03 0
2.274599e+00 3.050274e-03 0
2.272945e+00 3.039123e-03 0
2.271294e+00 3.027453e-03 0
2.269647e+00 3.015275e-03 0
2.268003e+00 3.002598e-03 0
2.266363e+00 2.989430e-03 0
2.264726e+00 2.975774e-03 0
2.263094e+00 2.961633e-03 0
2.261467e+00 2.947010e-03 0
2.259843e+00 2.931905e-03 0
2.258225e+00 2.916320e-03 0
2.256611e+00 2.900255e-03 0
2.255003e+00 2.883709e-03 0
2.253400e+00 2.866678e-03 0
2.251803e+00 2.849159e-03 0
2.250212e+00 2.831146e-03 0
2.248627e+00 2.812632e-03 0
2.247048e+00 2.793608e-03 0
2.245476e+00 2.774064e-03 0
2.243910e+00 2.753986e-03 0
2.242352e+00 2.733360e-03 0
2.240801e+00 2.712164e-03 0
2.239257e+00 2.690370e-03 0
2.237721e+00 2.667940e-03 0
2.236194e+00 2.644821e-03 0
2.234675e+00 2.620940e-03 0
2.233164e+00 2.596193e-03 0
2.231663e+00 2.570429e-03 0
2.230172e+00 2.543428e-03 0
2.228690e+00 2.514865e-03 0
2.227220e+00 2.484245e-03 0
2.225761e+00 2.450803e-03 0
2.224316e+00 2.413308e-03 0
2.222884e+00 2.369692e-03 0
2.221469e+00 2.316357e-03 0
2.220072e+00 2.246713e-03 0
2.218693e+00 2.150707e-03 0
2.217294e+00 2.137111e-03 0
2.217294e+00 2.179546e-03 0
3.022946e+00 -1.622107e-04 0
3.022946e+00 -1.556255e-04 0
3.022995e+00 -1.270701e-04 0
3.023034e+00 -6.730706e-05 0
3.023059e+00 2.480090e-05 0
3.023061e+00 1.513887e-04 0
3.023034e+00 3.158470e-04 0
3.022968e+00 5.225125e-04 0
3.022853e+00 7.765817e-04 0
3.022678e+00 1.084158e-03 0
3.022431e+00 1.452235e-03 0
3.022097e+00 1.888662e-03 0
3.021661e+00 2.402290e-03 0
3.021103e+00 3.003033e-03 0
3.020404e+00 3.701940e-03 0
3.019539e+00 4.511574e-03 0
3.018484e+00 5.446383e-03 0
3.017209e+00 6.523040e-03 0
3.015681e+00 7.761177e-03 0
3.013864e+00 9.184255e-03 0
3.011717e+00 1.082042e-02 0
3.009190e+00 1.270371e-02 0
3.006230e+00 1.487548e-02 0
3.002768e+00 1.738569e-02 0
2.998725e+00 2.029377e-02 0
2.994001e+00 2.366792e-02 0
2.988462e+00 2.758013e-02 0
2.981926e+00 3.209043e-02 0
2.974128e+00 3.720635e-02 0
2.964672e+00 4.278711e-02 0
2.952990e+00 4.833844e-02 0
2.938426e+00 5.265421e-02 0
2.920886e+00 5.352187e-02 0
2.903054e+00 4.895681e-02 0
2.890264e+00 4.035836e-02 0
2.882241e+00 3.107188e-02 0
2.877410e+00 2.290867e-02 0
2.874504e+00 1.637280e-02 0
2.872738e+00 1.137035e-02 0
2.871662e+00 7.624844e-03 0
2.871015e+00 4.849222e-03 0
2.870641e+00 2.801246e-03 0
2.870427e+00 1.297121e-03 0
2.870299e+00 2.016572e-04 0
2.870182e+00 -5.853129e-04 0
2.870050e+00 -1.128541e-03 0
2.869891e+00 -1.471073e-03 0
2.869701e+00 -1.649869e-03 0
2.869481e+00 -1.696394e-03 0
2.869231e+00 -1.637314e-03 0
2.868952e+00 -1.495151e-03 0
2.868645e+00 -1.288876e-03 0
2.868311e+00 -1.034433e-03 0
2.867950e+00 -7.454538e-04 0
2.867563e+00 -4.337647e-04 0
2.867154e+00 -1.159782e-04 0
2.866727e+00 1.939120e-04 0
2.866276e+00 4.957919e-04 0
2.865786e+00 7.873979e-04 0
2.865252e+00 1.062677e-03 0
2.864670e+00 1.320334e-03 0
2.864041e+00 1.560543e-03 0
2.863362e+00 1.784569e-03 0
2.862637e+00 1.994066e-03 0
2.861866e+00 2.190492e-03 0
2.861052e+00 2.375001e-03 0
2.860196e+00 2.548509e-03 0
2.859302e+00 2.711764e-03 0
2.858370e+00 2.865405e-03 0
2.857403e+00 3.009991e-03 0
2.856404e+00 3.146014e-03 0
2.855373e+00 3.273911e-03 0
2.854312e+00 3.394077e-03 0
2.853224e+00 3.506888e-03 0
2.852109e+00 3.612715e-03 0
2.850970e+00 3.711923e-03 0
2.849807e+00 3.804865e-03 0
2.848623e+00 3.891867e-03 0
2.847418e+00 3.973224e-03 0
2.846193e+00 4.049208e-03 0
2.844950e+00 4.120081e-03 0
2.843690e+00 4.186109e-03 0
2.842414e+00 4.247556e-03 0
2.841123e+00 4.304678e-03 0
2.839817e+00 4.357703e-03 0
2.838499e+00 4.406837e-03 0
2.837168e+00 4.452268e-03 0
2.835825e+00 4.494181e-03 0
2.834472e+00 4.532763e-03 0
2.833108e+00 4.568198e-03 0
2.831735e+00 4.600660e-03 0
2.830353e+00 4.630305e-03 0
2.828963e+00 4.657273e-03 0
2.827565e+00 4.681694e-03 0
2.826161e+00 4.703696e-03 0
2.824750e+00 4.723405e-03 0
2.823333e+00 4.740945e-03 0
2.821910e+00 4.756432e-03 0
2.820483e+00 4.769972e-03 0
2.819050e+00 4.781662e-03 0
2.817614e+00 4.791597e-03 0
2.816174e+00 4.799865e-03 0
2.814730e+00 4.806551e-03 0
2.813283e+00 4.811730e-03 0
2.811834e+00 4.815475e-03 0
2.810382e+00 4.817848e-03 0
2.808928e+00 4.818914e-03 0
2.807472e+00 4.818736e-03 0
2.806014e+00 4.817374e-03 0
2.804556e+00 4.814886e-03 0
2.803096e+00 4.811322e-03 0
2.801635e+00 4.806725e-03 0
2.800174e+00 4.801131e-03 0
2.798713e+00 4.794577e-03 0
2.797251e+00 4.787097e-03 0
2.795790e+00 4.778729e-03 0
2.794328e+00 4.769504e-03 0
2.792868e+00 4.759451e-03 0
2.791408e+00 4.748592e-03 0
2.789949e+00 4.736948e-03 0
2.788491e+00 4.724536e-03 0
2.787034e+00 4.711375e-03 0
2.785579e+00 4.697479e-03 0
2.784125e+00 4.682865e-03 0
2.782674e+00 4.667544e-03 0
2.781224e+00 4.651523e-03 0
2.779776e+00 4.634808e-03 0
2.778331e+00 4.617403e-03 0
2.776888e+00 4.599311e-03 0
2.775448e+00 4.580532e-03 0
2.774010e+00 4.561068e-03 0
2.772576e+00 4.540917e-03 0
2.771145e+00 4.520078e-03 0
2.769717e+00 4.498544e-03 0
2.768292e+00 4.476310e-03 0
2.766872e+00 4.453366e-03 0
2.765455e+00 4.429704e-03 0
2.764042e+00 4.405309e-03 0
2.762634e+00 4.380169e-03 0
2.761230e+00 4.354264e-03 0
2.759830e+00 4.327574e-03 0
2.758436e+00 4.300068e-03 0
2.757046e+00 4.271712e-03 0
2.755662e+00 4.242453e-03 0
2.754283e+00 4.212223e-03 0
2.752910e+00 4.180929e-03 0
2.751543e+00 4.148436e-03 0
2.750182e+00 4.114556e-03 0
2.748827e+00 4.079014e-03 0
2.747479e+00 4.041411e-03 0
2.746138e+00 4.001160e-03 0
2.744805e+00 3.957388e-03 0
2.743479e+00 3.908777e-03 0
2.742160e+00 3.853368e-03 0
2.740850e+00 3.788320e-03 0
2.739544e+00 3.710089e-03 0
2.738239e+00 3.615309e-03 0
2.736923e+00 3.525260e-03 0
2.736923e+00 3.487114e-03 0
3.268164e+00 -2.224951e-04 0
3.268164e+00 -2.137397e-04 0
3.268222e+00 -1.791319e-04 0
3.268274e+00 -1.092420e-04 0
3.268317e+00 -2.071081e-06 0
3.268347e+00 1.454962e-04 0
3.268360e+00 3.379272e-04 0
3.268349e+00 5.803532e-04 0
3.268309e+00 8.790897e-04 0
3.268231e+00 1.241537e-03 0
3.268107e+00 1.676085e-03 0
3.267928e+00 2.192208e-03 0
3.267681e+00 2.800495e-03 0
3.267355e+00 3.512641e-03 0
3.266934e+00 4.341714e-03 0
3.266404e+00 5.302475e-03 0
3.265746e+00 6.411630e-03 0
3.264942e+00 7.688443e-03 0
3.263971e+00 9.155562e-03 0
3.262809e+00 1.083985e-02 0
3.261433e+00 1.277362e-02 0
3.259815e+00 1.499637e-02 0
3.257922e+00 1.755680e-02 0
3.255718e+00 2.051562e-02 0
3.253156e+00 2.394909e-02 0
3.250175e+00 2.795377e-02 0
3.246684e+00 3.265187e-02 0
3.242532e+00 3.819543e-02 0
3.237447e+00 4.475892e-02 0
3.230897e+00 5.247992e-02 0
3.221810e+00 6.120818e-02 0
3.208118e+00 6.966745e-02 0
3.186641e+00 7.327584e-02 0
3.161274e+00 6.559676e-02 0
3.149356e+00 5.033279e-02 0
3.145151e+00 3.619936e-02 0
3.144207e+00 2.534751e-02 0
3.144440e+00 1.747067e-02 0
3.145012e+00 1.182473e-02 0
3.145616e+00 7.772751e-03 0
3.146152e+00 4.854392e-03 0
3.146593e+00 2.751109e-03 0
3.146930e+00 1.242911e-03 0
3.147167e+00 1.754473e-04 0
3.147308e+00 -5.614822e-04 0
3.147356e+00 -1.045236e-03 0
3.147320e+00 -1.329797e-03 0
3.147212e+00 -1.455994e-03 0
3.147042e+00 -1.456181e-03 0
3.146820e+00 -1.356691e-03 0
3.146554e+00 -1.179286e-03 0
3.146251e+00 -9.420493e-04 0
3.145917e+00 -6.598008e-04 0
3.145555e+00 -3.450538e-04 0
3.145170e+00 -1.384299e-05 0
3.144764e+00 3.234870e-04 0
3.144333e+00 6.636790e-04 0
3.143870e+00 1.000668e-03 0
3.143379e+00 1.328508e-03 0
3.142856e+00 1.642743e-03 0
3.142300e+00 1.941182e-03 0
3.141709e+00 2.223122e-03 0
3.141085e+00 2.488843e-03 0
3.140426e+00 2.739137e-03 0
3.139733e+00 2.974930e-03 0
3.139009e+00 3.197120e-03 0
3.138254e+00 3.406525e-03 0
3.137470e+00 3.603883e-03 0
3.136658e+00 3.789865e-03 0
3.135820e+00 3.965077e-03 0
3.134958e+00 4.130067e-03 0
3.134071e+00 4.285336e-03 0