<?xml version="1.0"?>
<VTKFile type="StructuredGrid">
<StructuredGrid WholeExtent="0 158 0 30 0 0 ">
<Piece Extent="0 158 0 30 0 0 ">
<Points>
<DataArray type="Float64" format="ascii" NumberOfComponents="3">
0.000000e+00 0.000000e+00 0.000000e+00
3.164557e-02 0.000000e+00 0.000000e+00
6.329114e-02 0.000000e+00 0.000000e+00
9.493671e-02 0.000000e+00 0.000000e+00
1.265823e-01 0.000000e+00 0.000000e+00
1.582278e-01 0.000000e+00 0.000000e+00
1.898734e-01 0.000000e+00 0.000000e+00
2.215190e-01 0.000000e+00 0.000000e+00
2.531646e-01 0.000000e+00 0.000000e+00
2.848101e-01 0.000000e+00 0.000000e+00
3.164557e-01 0.000000e+00 0.000000e+00
3.481013e-01 0.000000e+00 0.000000e+00
3.797468e-01 0.000000e+00 0.000000e+00
4.113924e-01 0.000000e+00 0.000000e+00
4.430380e-01 0.000000e+00 0.000000e+00
4.746835e-01 0.000000e+00 0.000000e+00
5.063291e-01 0.000000e+00 0.000000e+00
5.379747e-01 0.000000e+00 0.000000e+00
5.696203e-01 0.000000e+00 0.000000e+00
6.012658e-01 0.000000e+00 0.000000e+00
6.329114e-01 0.000000e+00 0.000000e+00
6.645570e-01 0.000000e+00 0.000000e+00
6.962025e-01 0.000000e+00 0.000000e+00
7.278481e-01 0.000000e+00 0.000000e+00
7.594937e-01 0.000000e+00 0.000000e+00
7.911392e-01 0.000000e+00 0.000000e+00
8.227848e-01 0.000000e+00 0.000000e+00
8.544304e-01 0.000000e+00 0.000000e+00
8.860759e-01 0.000000e+00 0.000000e+00
9.177215e-01 0.000000e+00 0.000000e+00
9.493671e-01 0.000000e+00 0.000000e+00
9.810127e-01 0.000000e+00 0.000000e+00
1.012658e+00 0.000000e+00 0.000000e+00
1.044304e+00 0.000000e+00 0.000000e+00
1.075949e+00 0.000000e+00 0.000000e+00
1.107595e+00 0.000000e+00 0.000000e+00
1.139241e+00 0.000000e+00 0.000000e+00
1.170886e+00 0.000000e+00 0.000000e+00
1.202532e+00 0.000000e+00 0.000000e+00
1.234177e+00 0.000000e+00 0.000000e+00
1.265823e+00 0.000000e+00 0.000000e+00
1.297468e+00 0.000000e+00 0.000000e+00
1.329114e+00 0.000000e+00 0.000000e+00
1.360759e+00 0.000000e+00 0.000000e+00
1.392405e+00 0.000000e+00 0.000000e+00
1.424051e+00 0.000000e+00 0.000000e+00
1.455696e+00 0.000000e+00 0.000000e+00
1.487342e+00 0.000000e+00 0.000000e+00
1.518987e+00 0.000000e+00 0.000000e+00
1.550633e+00 0.000000e+00 0.000000e+00
1.582278e+00 0.000000e+00 0.000000e+00
1.613924e+00 0.000000e+00 0.000000e+00
1.645570e+00 0.000000e+00 0.000000e+00
1.677215e+00 0.000000e+00 0.000000e+00
1.708861e+00 0.000000e+00 0.000000e+00
1.740506e+00 0.000000e+00 0.000000e+00
1.772152e+00 0.000000e+00 0.000000e+00
1.803797e+00 0.000000e+00 0.000000e+00
1.835443e+00 0.000000e+00 0.000000e+00
1.867089e+00 0.000000e+00 0.000000e+00
1.898734e+00 0.000000e+00 0.000000e+00
1.930380e+00 0.000000e+00 0.000000e+00
1.962025e+00 0.000000e+00 0.000000e+00
1.993671e+00 0.000000e+00 0.000000e+00
2.025316e+00 0.000000e+00 0.000000e+00
2.056962e+00 0.000000e+00 0.000000e+00
2.088608e+00 0.000000e+00 0.000000e+00
2.120253e+00 0.000000e+00 0.000000e+00
2.151899e+00 0.000000e+00 0.000000e+00
2.183544e+00 0.000000e+00 0.000000e+00
2.215190e+00 0.000000e+00 0.000000e+00
2.246835e+00 0.000000e+00 0.000000e+00
2.278481e+00 0.000000e+00 0.000000e+00
2.310127e+00 0.000000e+00 0.000000e+00
2.341772e+00 0.000000e+00 0.000000e+00
2.373418e+00 0.000000e+00 0.000000e+00
2.405063e+00 0.000000e+00 0.000000e+00
2.436709e+00 0.000000e+00 0.000000e+00
2.468354e+00 0.000000e+00 0.000000e+00
2.500000e+00 0.000000e+00 0.000000e+00
2.531646e+00 0.000000e+00 0.000000e+00
2.563291e+00 0.000000e+00 0.000000e+00
2.594937e+00 0.000000e+00 0.000000e+00
2.626582e+00 0.000000e+00 0.000000e+00
2.658228e+00 0.000000e+00 0.000000e+00
2.689873e+00 0.000000e+00 0.000000e+00
2.721519e+00 0.000000e+00 0.000000e+00
2.753165e+00 0.000000e+00 0.000000e+00
2.784810e+00 0.000000e+00 0.000000e+00
2.816456e+00 0.000000e+00 0.000000e+00
2.848101e+00 0.000000e+00 0.000000e+00
2.879747e+00 0.000000e+00 0.000000e+00
2.911392e+00 0.000000e+00 0.000000e+00
2.943038e+00 0.000000e+00 0.000000e+00
2.974684e+00 0.000000e+00 0.000000e+00
3.006329e+00 0.000000e+00 0.000000e+00
3.037975e+00 0.000000e+00 0.000000e+00
3.069620e+00 0.000000e+00 0.000000e+00
3.101266e+00 0.000000e+00 0.000000e+00
3.132911e+00 0.000000e+00 0.000000e+00
3.164557e+00 0.000000e+00 0.000000e+00
3.196203e+00 0.000000e+00 0.000000e+00
3.227848e+00 0.000000e+00 0.000000e+00
3.259494e+00 0.000000e+00 0.000000e+00
3.291139e+00 0.000000e+00 0.000000e+00
3.322785e+00 0.000000e+00 0.000000e+00
3.354430e+00 0.000000e+00 0.000000e+00
3.386076e+00 0.000000e+00 0.000000e+00
3.417722e+00 0.000000e+00 0.000000e+00
3.449367e+00 0.000000e+00 0.000000e+00
3.481013e+00 0.000000e+00 0.000000e+00
3.512658e+00 0.000000e+00 0.000000e+00
3.544304e+00 0.000000e+00 0.000000e+00
3.575949e+00 0.000000e+00 0.000000e+00
3.607595e+00 0.000000e+00 0.000000e+00
3.639241e+00 0.000000e+00 0.000000e+00
3.670886e+00 0.000000e+00 0.000000e+00
3.702532e+00 0.000000e+00 0.000000e+00
3.734177e+00 0.000000e+00 0.000000e+00
3.765823e+00 0.000000e+00 0.000000e+00
3.797468e+00 0.000000e+00 0.000000e+00
3.829114e+00 0.000000e+00 0.000000e+00
3.860759e+00 0.000000e+00 0.000000e+00
3.892405e+00 0.000000e+00 0.000000e+00
3.924051e+00 0.000000e+00 0.000000e+00
3.955696e+00 0.000000e+00 0.000000e+00
3.987342e+00 0.000000e+00 0.000000e+00
4.018987e+00 0.000000e+00 0.000000e+00
4.050633e+00 0.000000e+00 0.000000e+00
4.082278e+00 0.000000e+00 0.000000e+00
4.113924e+00 0.000000e+00 0.000000e+00
4.145570e+00 0.000000e+00 0.000000e+00
4.177215e+00 0.000000e+00 0.000000e+00
4.208861e+00 0.000000e+00 0.000000e+00
4.240506e+00 0.000000e+00 0.000000e+00
4.272152e+00 0.000000e+00 0.000000e+00
4.303797e+00 0.000000e+00 0.000000e+00
4.335443e+00 0.000000e+00 0.000000e+00
4.367089e+00 0.000000e+00 0.000000e+00
4.398734e+00 0.000000e+00 0.000000e+00
4.430380e+00 0.000000e+00 0.000000e+00
4.462025e+00 0.000000e+00 0.000000e+00
4.493671e+00 0.000000e+00 0.000000e+00
4.525316e+00 0.000000e+00 0.000000e+00
4.556962e+00 0.000000e+00 0.000000e+00
4.588608e+00 0.000000e+00 0.000000e+00
4.620253e+00 0.000000e+00 0.000000e+00
4.651899e+00 0.000000e+00 0.000000e+00
4.683544e+00 0.000000e+00 0.000000e+00
4.715190e+00 0.000000e+00 0.000000e+00
4.746835e+00 0.000000e+00 0.000000e+00
4.778481e+00 0.000000e+00 0.000000e+00
4.810127e+00 0.000000e+00 0.000000e+00
4.841772e+00 0.000000e+00 0.000000e+00
4.873418e+00 0.000000e+00 0.000000e+00
4.905063e+00 0.000000e+00 0.000000e+00
4.936709e+00 0.000000e+00 0.000000e+00
4.968354e+00 0.000000e+00 0.000000e+00
5.000000e+00 0.000000e+00 0.000000e+00
0.000000e+00 3.333333e-02 0.000000e+00
3.164557e-02 3.333333e-02 0.000000e+00
6.329114e-02 3.333333e-02 0.000000e+00
9.493671e-02 3.333333e-02 0.000000e+00
1.265823e-01 3.333333e-02 0.000000e+00
1.582278e-01 3.333333e-02 0.000000e+00
1.898734e-01 3.333333e-02 0.000000e+00
2.215190e-01 3.333333e-02 0.000000e+00
2.531646e-01 3.333333e-02 0.000000e+00
2.848101e-01 3.333333e-02 0.000000e+00
3.164557e-01 3.333333e-02 0.000000e+00
3.481013e-01 3.333333e-02 0.000000e+00
3.797468e-01 3.333333e-02 0.000000e+00
4.113924e-01 3.333333e-02 0.000000e+00
4.430380e-01 3.333333e-02 0.000000e+00
4.746835e-01 3.333333e-02 0.000000e+00
5.063291e-01 3.333333e-02 0.000000e+00
5.379747e-01 3.333333e-02 0.000000e+00
5.696203e-01 3.333333e-02 0.000000e+00
6.012658e-01 3.333333e-02 0.000000e+00
6.329114e-01 3.333333e-02 0.000000e+00
6.645570e-01 3.333333e-02 0.000000e+00
6.962025e-01 3.333333e-02 0.000000e+00
7.278481e-01 3.333333e-02 0.000000e+00
7.594937e-01 3.333333e-02 0.000000e+00
7.911392e-01 3.333333e-02 0.000000e+00
8.227848e-01 3.333333e-02 0.000000e+00
8.544304e-01 3.333333e-02 0.000000e+00
8.860759e-01 3.333333e-02 0.000000e+00
9.177215e-01 3.333333e-02 0.000000e+00
9.493671e-01 3.333333e-02 0.000000e+00
9.810127e-01 3.333333e-02 0.000000e+00
1.012658e+00 3.333333e-02 0.000000e+00
1.044304e+00 3.333333e-02 0.000000e+00
1.075949e+00 3.333333e-02 0.000000e+00
1.107595e+00 3.333333e-02 0.000000e+00
1.139241e+00 3.333333e-02 0.000000e+00
1.170886e+00 3.333333e-02 0.000000e+00
1.202532e+00 3.333333e-02 0.000000e+00
1.234177e+00 3.333333e-02 0.000000e+00
1.265823e+00 3.333333e-02 0.000000e+00
1.297468e+00 3.333333e-02 0.000000e+00
1.329114e+00 3.333333e-02 0.000000e+00
1.360759e+00 3.333333e-02 0.000000e+00
1.392405e+00 3.333333e-02 0.000000e+00
1.424051e+00 3.333333e-02 0.000000e+00
1.455696e+00 3.333333e-02 0.000000e+00
1.487342e+00 3.333333e-02 0.000000e+00
1.518987e+00 3.333333e-02 0.000000e+00
1.550633e+00 3.333333e-02 0.000000e+00
1.582278e+00 3.333333e-02 0.000000e+00
1.613924e+00 3.333333e-02 0.000000e+00
1.645570e+00 3.333333e-02 0.000000e+00
1.677215e+00 3.333333e-02 0.000000e+00
1.708861e+00 3.333333e-02 0.000000e+00
1.740506e+00 3.333333e-02 0.000000e+00
1.772152e+00 3.333333e-02 0.000000e+00
1.803797e+00 3.333333e-02 0.000000e+00
1.835443e+00 3.333333e-02 0.000000e+00
1.867089e+00 3.333333e-02 0.000000e+00
1.898734e+00 3.333333e-02 0.000000e+00
1.930380e+00 3.333333e-02 0.000000e+00
1.962025e+00 3.333333e-02 0.000000e+00
1.993671e+00 3.333333e-02 0.000000e+00
2.025316e+00 3.333333e-02 0.000000e+00
2.056962e+00 3.333333e-02 0.000000e+00
2.088608e+00 3.333333e-02 0.000000e+00
2.120253e+00 3.333333e-02 0.000000e+00
2.151899e+00 3.333333e-02 0.000000e+00
2.183544e+00 3.333333e-02 0.000000e+00
2.215190e+00 3.333333e-02 0.000000e+00
2.246835e+00 3.333333e-02 0.000000e+00
2.278481e+00 3.333333e-02 0.000000e+00
2.310127e+00 3.333333e-02 0.000000e+00
2.341772e+00 3.333333e-02 0.000000e+00
2.373418e+00 3.333333e-02 0.000000e+00
2.405063e+00 3.333333e-02 0.000000e+00
2.436709e+00 3.333333e-02 0.000000e+00
2.468354e+00 3.333333e-02 0.000000e+00
2.500000e+00 3.333333e-02 0.000000e+00
2.531646e+00 3.333333e-02 0.000000e+00
2.563291e+00 3.333333e-02 0.000000e+00
2.594937e+00 3.333333e-02 0.000000e+00
2.626582e+00 3.333333e-02 0.000000e+00
2.658228e+00 3.333333e-02 0.000000e+00
2.689873e+00 3.333333e-02 0.000000e+00
2.721519e+00 3.333333e-02 0.000000e+00
2.753165e+00 3.333333e-02 0.000000e+00
2.784810e+00 3.333333e-02 0.000000e+00
2.816456e+00 3.333333e-02 0.000000e+00
2.848101e+00 3.333333e-02 0.000000e+00
2.879747e+00 3.333333e-02 0.000000e+00
[...]
<PointData>
<DataArray Name="Velocity" type="Float64" format="ascii" NumberOfComponents="3">
0.000000e+00 0.000000e+00 0
0.000000e+00 0.000000e+00 0
0.000000e+00 0.000000e+00 0
0.000000e+00 0.000000e+00 0
0.000000e+00 0.000000e+00 0
0.000000e+00 0.000000e+00 0
0.000000e+00 0.000000e+00 0
0.000000e+00 0.000000e+00 0
0.000000e+00 0.000000e+00 0
0.000000e+00 0.000000e+00 0
0.000000e+00 0.000000e+00 0
0.000000e+00 0.000000e+00 0
0.000000e+00 0.000000e+00 0
0.000000e+00 0.000000e+00 0
0.000000e+00 0.000000e+00 0
0.000000e+00 0.000000e+00 0
0.000000e+00 0.000000e+00 0
0.000000e+00 0.000000e+00 0
0.000000e+00 0.000000e+00 0
1.136673e-18 0.000000e+00 0
0.000000e+00 0.000000e+00 0
0.000000e+00 0.000000e+00 0
0.000000e+00 0.000000e+00 0
1.059160e-17 0.000000e+00 0
0.000000e+00 0.000000e+00 0
0.000000e+00 0.000000e+00 0
0.000000e+00 0.000000e+00 0
-2.028366e-17 0.000000e+00 0
0.000000e+00 0.000000e+00 0
0.000000e+00 0.000000e+00 0
0.000000e+00 0.000000e+00 0
4.105547e-18 0.000000e+00 0
0.000000e+00 0.000000e+00 0
0.000000e+00 0.000000e+00 0
0.000000e+00 0.000000e+00 0
0.000000e+00 0.000000e+00 0
0.000000e+00 0.000000e+00 0
0.000000e+00 0.000000e+00 0
2.638671e-17 0.000000e+00 0
0.000000e+00 0.000000e+00 0
0.000000e+00 0.000000e+00 0
0.000000e+00 0.000000e+00 0
0.000000e+00 0.000000e+00 0
0.000000e+00 0.000000e+00 0
0.000000e+00 0.000000e+00 0
0.000000e+00 0.000000e+00 0
1.345293e-18 0.000000e+00 0
0.000000e+00 0.000000e+00 0
0.000000e+00 0.000000e+00 0
0.000000e+00 0.000000e+00 0
0.000000e+00 0.000000e+00 0
0.000000e+00 0.000000e+00 0
0.000000e+00 0.000000e+00 0
0.000000e+00 0.000000e+00 0
2.059640e-17 0.000000e+00 0
0.000000e+00 0.000000e+00 0
0.000000e+00 0.000000e+00 0
0.000000e+00 0.000000e+00 0
0.000000e+00 0.000000e+00 0
0.000000e+00 0.000000e+00 0
0.000000e+00 0.000000e+00 0
0.000000e+00 0.000000e+00 0
-2.513070e-17 0.000000e+00 0
0.000000e+00 0.000000e+00 0
0.000000e+00 0.000000e+00 0
0.000000e+00 0.000000e+00 0
0.000000e+00 0.000000e+00 0
0.000000e+00 0.000000e+00 0
0.000000e+00 0.000000e+00 0
0.000000e+00 0.000000e+00 0
0.000000e+00 0.000000e+00 0
0.000000e+00 0.000000e+00 0
0.000000e+00 0.000000e+00 0
0.000000e+00 0.000000e+00 0
0.000000e+00 0.000000e+00 0
0.000000e+00 0.000000e+00 0
0.000000e+00 0.000000e+00 0
0.000000e+00 0.000000e+00 0
0.000000e+00 0.000000e+00 0
0.000000e+00 0.000000e+00 0
0.000000e+00 0.000000e+00 0
0.000000e+00 0.000000e+00 0
0.000000e+00 0.000000e+00 0
0.000000e+00 0.000000e+00 0
0.000000e+00 0.000000e+00 0
0.000000e+00 0.000000e+00 0
0.000000e+00 0.000000e+00 0
0.000000e+00 0.000000e+00 0
0.000000e+00 0.000000e+00 0
0.000000e+00 0.000000e+00 0
0.000000e+00 0.000000e+00 0
0.000000e+00 0.000000e+00 0
0.000000e+00 0.000000e+00 0
0.000000e+00 0.000000e+00 0
0.000000e+00 0.000000e+00 0
0.000000e+00 0.000000e+00 0
0.000000e+00 0.000000e+00 0
0.000000e+00 0.000000e+00 0
0.000000e+00 0.000000e+00 0
0.000000e+00 0.000000e+00 0
0.000000e+00 0.000000e+00 0
0.000000e+00 0.000000e+00 0
0.000000e+00 0.000000e+00 0
0.000000e+00 0.000000e+00 0
0.000000e+00 0.000000e+00 0
0.000000e+00 0.000000e+00 0
0.000000e+00 0.000000e+00 0
0.000000e+00 0.000000e+00 0
0.000000e+00 0.000000e+00 0
0.000000e+00 0.000000e+00 0
0.000000e+00 0.000000e+00 0
0.000000e+00 0.000000e+00 0
0.000000e+00 0.000000e+00 0
0.000000e+00 0.000000e+00 0
0.000000e+00 0.000000e+00 0
0.000000e+00 0.000000e+00 0
0.000000e+00 0.000000e+00 0
0.000000e+00 0.000000e+00 0
0.000000e+00 0.000000e+00 0
0.000000e+00 0.000000e+00 0
0.000000e+00 0.000000e+00 0
0.000000e+00 0.000000e+00 0
0.000000e+00 0.000000e+00 0
0.000000e+00 0.000000e+00 0
0.000000e+00 0.000000e+00 0
0.000000e+00 0.000000e+00 0
0.000000e+00 0.000000e+00 0
0.000000e+00 0.000000e+00 0
0.000000e+00 0.000000e+00 0
0.000000e+00 0.000000e+00 0
0.000000e+00 0.000000e+00 0
0.000000e+00 0.000000e+00 0
0.000000e+00 0.000000e+00 0
0.000000e+00 0.000000e+00 0
0.000000e+00 0.000000e+00 0
0.000000e+00 0.000000e+00 0
0.000000e+00 0.000000e+00 0
0.000000e+00 0.000000e+00 0
0.000000e+00 0.000000e+00 0
0.000000e+00 0.000000e+00 0
0.000000e+00 0.000000e+00 0
0.000000e+00 0.000000e+00 0
0.000000e+00 0.000000e+00 0
0.000000e+00 0.000000e+00 0
0.000000e+00 0.000000e+00 0
0.000000e+00 0.000000e+00 0
0.000000e+00 0.000000e+00 0
0.000000e+00 0.000000e+00 0
0.000000e+00 0.000000e+00 0
0.000000e+00 0.000000e+00 0
0.000000e+00 0.000000e+00 0
0.000000e+00 0.000000e+00 0
0.000000e+00 0.000000e+00 0
0.000000e+00 0.000000e+00 0
0.000000e+00 0.000000e+00 0
0.000000e+00 0.000000e+00 0
0.000000e+00 0.000000e+00 0
0.000000e+00 0.000000e+00 0
0.000000e+00 0.000000e+00 0
1.341654e+00 -9.232014e-05 0
1.341654e+00 -1.000063e-04 0
1.341738e+00 -9.774926e-05 0
1.341805e+00 -6.643026e-05 0
1.341839e+00 -1.809135e-05 0
1.341828e+00 4.130198e-05 0
1.341755e+00 1.141913e-04 0
1.341607e+00 2.047202e-04 0
1.341363e+00 3.159207e-04 0
1.341002e+00 4.507880e-04 0
1.340502e+00 6.126918e-04 0
1.339834e+00 8.053278e-04 0
1.338966e+00 1.032794e-03 0
1.337865e+00 1.299940e-03 0
1.336490e+00 1.612190e-03 0
1.334794e+00 1.975554e-03 0
1.332726e+00 2.397160e-03 0
1.330228e+00 2.885466e-03 0
1.327230e+00 3.450213e-03 0
1.323656e+00 4.103092e-03 0
1.319415e+00 4.858298e-03 0
1.314402e+00 5.732702e-03 0
1.308495e+00 6.746349e-03 0
1.301550e+00 7.922674e-03 0
1.293399e+00 9.287969e-03 0
1.283846e+00 1.086895e-02 0
1.272667e+00 1.268660e-02 0
1.259622e+00 1.474299e-02 0
1.244470e+00 1.699555e-02 0
1.227031e+00 1.931311e-02 0
1.207297e+00 2.141595e-02 0
1.185623e+00 2.283153e-02 0
1.162982e+00 2.296516e-02 0
1.141067e+00 2.143122e-02 0
1.121765e+00 1.848806e-02 0
1.106044e+00 1.488374e-02 0
1.093970e+00 1.130652e-02 0
1.085113e+00 8.154831e-03 0
1.078883e+00 5.568018e-03 0
1.074704e+00 3.527720e-03 0
1.072094e+00 1.934612e-03 0
1.070683e+00 5.707808e-04 0
1.070183e+00 -6.782096e-04 0
1.070410e+00 -1.710613e-03 0
1.071188e+00 -2.473412e-03 0
1.072355e+00 -2.991557e-03 0
1.073776e+00 -3.300270e-03 0
1.075337e+00 -3.436524e-03 0
1.076945e+00 -3.434853e-03 0
1.078526e+00 -3.325634e-03 0
1.080024e+00 -3.134640e-03 0
1.081394e+00 -2.883239e-03 0
1.082603e+00 -2.588867e-03 0
1.083628e+00 -2.265613e-03 0
1.084452e+00 -1.924784e-03 0
1.085067e+00 -1.575178e-03 0
1.085467e+00 -1.222945e-03 0
1.085656e+00 -8.705965e-04 0
1.085652e+00 -5.281130e-04 0
1.085480e+00 -2.234102e-04 0
1.085157e+00 3.848820e-06 0
1.084696e+00 1.636656e-04 0
1.084112e+00 2.967453e-04 0
1.083415e+00 4.153620e-04 0
1.082613e+00 5.240412e-04 0
1.081714e+00 6.248606e-04 0
1.080725e+00 7.189697e-04 0
1.079651e+00 8.070893e-04 0
1.078496e+00 8.897094e-04 0
1.077266e+00 9.671934e-04 0
1.075964e+00 1.039844e-03 0
1.074596e+00 1.107944e-03 0
1.073165e+00 1.171765e-03 0
1.071675e+00 1.231564e-03 0
1.070129e+00 1.287567e-03 0
1.068530e+00 1.339958e-03 0
1.066883e+00 1.388895e-03 0
1.065190e+00 1.434521e-03 0
1.063453e+00 1.476984e-03 0
1.061676e+00 1.516441e-03 0
1.059861e+00 1.553052e-03 0
1.058011e+00 1.586970e-03 0
1.056128e+00 1.618330e-03 0
1.054215e+00 1.647254e-03 0
1.052273e+00 1.673851e-03 0
1.050304e+00 1.698229e-03 0
1.048311e+00 1.720497e-03 0
1.046296e+00 1.740760e-03 0
1.044259e+00 1.759123e-03 0
1.042204e+00 1.775685e-03 0
1.040130e+00 1.790536e-03 0
1.038041e+00 1.803760e-03 0
1.035937e+00 1.815438e-03 0
1.033820e+00 1.825649e-03 0
1.031691e+00 1.834466e-03 0
1.029551e+00 1.841965e-03 0
1.027401e+00 1.848212e-03 0
1.025243e+00 1.853274e-03 0
1.023078e+00 1.857211e-03 0
1.020906e+00 1.860081e-03 0
1.018728e+00 1.861941e-03 0
1.016546e+00 1.862843e-03 0
1.014361e+00 1.862836e-03 0
1.012172e+00 1.861967e-03 0
1.009981e+00 1.860277e-03 0
1.007789e+00 1.857803e-03 0
1.005596e+00 1.854586e-03 0
1.003403e+00 1.850664e-03 0
1.001211e+00 1.846078e-03 0
9.990194e-01 1.840865e-03 0
9.968298e-01 1.835058e-03 0
9.946424e-01 1.828686e-03 0
9.924579e-01 1.821771e-03 0
9.902765e-01 1.814335e-03 0
9.880989e-01 1.806400e-03 0
9.859254e-01 1.797991e-03 0
9.837565e-01 1.789133e-03 0
9.815926e-01 1.779850e-03 0
9.794341e-01 1.770164e-03 0
9.772814e-01 1.760089e-03 0
9.751347e-01 1.749633e-03 0
9.729946e-01 1.738805e-03 0
9.708613e-01 1.727609e-03 0
9.687352e-01 1.716046e-03 0
9.666166e-01 1.704122e-03 0
9.645059e-01 1.691845e-03 0
9.624034e-01 1.679215e-03 0
9.603094e-01 1.666236e-03 0
9.582243e-01 1.652906e-03 0
9.561485e-01 1.639218e-03 0
9.540823e-01 1.625164e-03 0
9.520260e-01 1.610737e-03 0
9.499801e-01 1.595931e-03 0
9.479448e-01 1.580739e-03 0
9.459207e-01 1.565156e-03 0
9.439079e-01 1.549171e-03 0
9.419071e-01 1.532772e-03 0
9.399186e-01 1.515945e-03 0
9.379428e-01 1.498669e-03 0
9.359802e-01 1.480925e-03 0
9.340314e-01 1.462689e-03 0
9.320966e-01 1.443933e-03 0
9.301766e-01 1.424628e-03 0
9.282719e-01 1.404736e-03 0
9.263831e-01 1.384208e-03 0
9.245108e-01 1.362980e-03 0
9.226559e-01 1.340964e-03 0
9.208190e-01 1.318044e-03 0
9.190013e-01 1.294058e-03 0
9.172038e-01 1.268773e-03 0
9.154279e-01 1.241854e-03 0
9.136754e-01 1.212799e-03 0
9.119486e-01 1.180801e-03 0
9.102508e-01 1.144464e-03 0
9.085866e-01 1.100800e-03 0
9.069630e-01 1.044937e-03 0
9.053915e-01 9.117664e-04 0
9.038891e-01 1.163847e-03 0
9.038891e-01 1.517420e-03 0
1.989209e+00 -1.816598e-04 0
1.989209e+00 -1.800411e-04 0
1.989280e+00 -1.596861e-04 0
1.989337e+00 -1.063694e-04 0
1.989372e+00 -2.342974e-05 0
1.989372e+00 8.852094e-05 0
1.989321e+00 2.328208e-04 0
1.989205e+00 4.137450e-04 0
1.989007e+00 6.363922e-04 0
1.988708e+00 9.066404e-04 0
1.988289e+00 1.231083e-03 0
1.987724e+00 1.617091e-03 0
1.986986e+00 2.073184e-03 0
1.986044e+00 2.608942e-03 0
1.984864e+00 3.235017e-03 0
1.983405e+00 3.963761e-03 0
1.981622e+00 4.809610e-03 0
1.979463e+00 5.789159e-03 0
1.976870e+00 6.922090e-03 0
1.973774e+00 8.232115e-03 0
1.970098e+00 9.747584e-03 0
1.965751e+00 1.150253e-02 0
1.960626e+00 1.353775e-02 0
1.954597e+00 1.590149e-02 0
1.947515e+00 1.864862e-02 0
1.939200e+00 2.183669e-02 0
1.929440e+00 2.551537e-02 0
1.917980e+00 2.970172e-02 0
1.904528e+00 3.432953e-02 0
1.888776e+00 3.915597e-02 0
1.870484e+00 4.361639e-02 0
1.849698e+00 4.667879e-02 0
1.827248e+00 4.693234e-02 0
1.805397e+00 4.341429e-02 0
1.787149e+00 3.689086e-02 0
1.773275e+00 2.927738e-02 0
1.763243e+00 2.204598e-02 0
1.756189e+00 1.589097e-02 0
1.751332e+00 1.096473e-02 0
1.748068e+00 7.151192e-03 0
1.745950e+00 4.235405e-03 0
1.744644e+00 2.012139e-03 0
1.743798e+00 2.866379e-04 0
1.743188e+00 -1.058031e-03 0
1.742731e+00 -2.048696e-03 0
1.742372e+00 -2.726854e-03 0
1.742075e+00 -3.140887e-03 0
1.741811e+00 -3.337712e-03 0
1.741558e+00 -3.359653e-03 0
1.741298e+00 -3.243473e-03 0
1.741017e+00 -3.020368e-03 0
1.740701e+00 -2.716377e-03 0
1.740340e+00 -2.352985e-03 0
1.739925e+00 -1.947891e-03 0
1.739450e+00 -1.515916e-03 0
1.738911e+00 -1.069619e-03 0
1.738308e+00 -6.207921e-04 0
1.737655e+00 -1.945302e-04 0
1.736957e+00 1.857071e-04 0
1.736213e+00 5.217430e-04 0
1.735410e+00 8.252767e-04 0
1.734514e+00 1.100672e-03 0
1.733520e+00 1.349934e-03 0
1.732432e+00 1.578582e-03 0
1.731254e+00 1.790586e-03 0
1.729992e+00 1.988508e-03 0
1.728650e+00 2.174039e-03 0
1.727232e+00 2.348356e-03 0
1.725742e+00 2.512322e-03 0
1.724184e+00 2.666623e-03 0
1.722563e+00 2.811845e-03 0
1.720880e+00 2.948515e-03 0
1.719140e+00 3.077119e-03 0
1.717346e+00 3.198097e-03 0
1.715501e+00 3.311836e-03 0
1.713606e+00 3.418683e-03 0
1.711666e+00 3.518953e-03 0
1.709682e+00 3.612947e-03 0
1.707657e+00 3.700965e-03 0
1.705594e+00 3.783303e-03 0
1.703494e+00 3.860245e-03 0
1.701359e+00 3.932058e-03 0
1.699192e+00 3.998989e-03 0
1.696995e+00 4.061268e-03 0
1.694768e+00 4.119114e-03 0
1.692515e+00 4.172740e-03 0
1.690236e+00 4.222353e-03 0
1.687933e+00 4.268155e-03 0
1.685608e+00 4.310337e-03 0
1.683262e+00 4.349081e-03 0
1.680896e+00 4.384555e-03 0
1.678512e+00 4.416921e-03 0
1.676111e+00 4.446333e-03 0
1.673693e+00 4.472941e-03 0
1.671261e+00 4.496888e-03 0
1.668815e+00 4.518312e-03 0
1.666356e+00 4.537342e-03 0
1.663885e+00 4.554099e-03 0
1.661402e+00 4.568699e-03 0
1.658910e+00 4.581252e-03 0
1.656408e+00 4.591862e-03 0
1.653897e+00 4.600630e-03 0
1.651378e+00 4.607649e-03 0
1.648852e+00 4.613007e-03 0
1.646320e+00 4.616784e-03 0
1.643781e+00 4.619058e-03 0
1.641237e+00 4.619903e-03 0
1.638687e+00 4.619395e-03 0
1.636134e+00 4.617604e-03 0
1.633577e+00 4.614598e-03 0
1.631016e+00 4.610435e-03 0
1.628452e+00 4.605170e-03 0
1.625886e+00 4.598847e-03 0
1.623318e+00 4.591513e-03 0
1.620748e+00 4.583214e-03 0
1.618177e+00 4.573996e-03 0
1.615605e+00 4.563902e-03 0
1.613033e+00 4.552971e-03 0
1.610460e+00 4.541237e-03 0
1.607887e+00 4.528720e-03 0
1.605315e+00 4.515440e-03 0
1.602744e+00 4.501409e-03 0
1.600174e+00 4.486636e-03 0
1.597605e+00 4.471131e-03 0
1.595038e+00 4.454905e-03 0
1.592473e+00 4.437963e-03 0
1.589910e+00 4.420306e-03 0
1.587350e+00 4.401933e-03 0
1.584793e+00 4.382834e-03 0
1.582239e+00 4.362995e-03 0
1.579689e+00 4.342402e-03 0
1.577143e+00 4.321042e-03 0
1.574602e+00 4.298900e-03 0
1.572065e+00 4.275960e-03 0
1.569533e+00 4.252200e-03 0
1.567006e+00 4.227598e-03 0
1.564485e+00 4.202124e-03 0
1.561971e+00 4.175742e-03 0
1.559463e+00 4.148415e-03 0
1.556962e+00 4.120100e-03 0
1.554469e+00 4.090746e-03 0
1.551983e+00 4.060300e-03 0
1.549506e+00 4.028697e-03 0
1.547038e+00 3.995852e-03 0
1.544580e+00 3.961666e-03 0
1.542132e+00 3.926004e-03 0
1.539695e+00 3.888690e-03 0
1.537270e+00 3.849487e-03 0
1.534857e+00 3.808069e-03 0
1.532458e+00 3.763975e-03 0
1.530074e+00 3.716541e-03 0
1.527706e+00 3.664788e-03 0
1.525356e+00 3.607191e-03 0
1.523026e+00 3.541299e-03 0
1.520720e+00 3.463056e-03 0
1.518440e+00 3.365454e-03 0
1.516188e+00 3.237897e-03 0
1.513911e+00 3.285119e-03 0
1.513911e+00 3.405142e-03 0
2.288363e+00 -2.725248e-04 0
2.288363e+00 -2.653946e-04 0
2.288445e+00 -2.328868e-04 0
2.288515e+00 -1.631728e-04 0
2.288571e+00 -5.464347e-05 0
2.288602e+00 9.513396e-05 0
2.288599e+00 2.900973e-04 0
2.288553e+00 5.357139e-04 0
2.288451e+00 8.387920e-04 0
2.288280e+00 1.207248e-03 0
2.288024e+00 1.650074e-03 0
2.287668e+00 2.177643e-03 0
2.287191e+00 2.801615e-03 0
2.286570e+00 3.534905e-03 0
2.285780e+00 4.392255e-03 0
2.284793e+00 5.390665e-03 0
2.283577e+00 6.549442e-03 0
2.282094e+00 7.891140e-03 0
2.280305e+00 9.442664e-03 0
2.278162e+00 1.123601e-02 0
2.275612e+00 1.330966e-02 0
2.272594e+00 1.571034e-02 0
2.269035e+00 1.849500e-02 0
2.264849e+00 2.173264e-02 0
2.259930e+00 2.550537e-02 0
2.254145e+00 2.990762e-02 0
2.247315e+00 3.503913e-02 0
2.239194e+00 4.098411e-02 0
2.229421e+00 4.775687e-02 0
2.217458e+00 5.517334e-02 0
2.202531e+00 6.257845e-02 0
2.183750e+00 6.837302e-02 0
2.160967e+00 6.962794e-02 0
2.137671e+00 6.366752e-02 0
2.121072e+00 5.232301e-02 0
2.110784e+00 4.006493e-02 0
2.104685e+00 2.930361e-02 0
2.101082e+00 2.070055e-02 0
2.098935e+00 1.412252e-02 0
2.097653e+00 9.196695e-03 0
2.096895e+00 5.540387e-03 0
2.096444e+00 2.837723e-03 0
2.096162e+00 8.556028e-04 0
2.095917e+00 -5.866188e-04 0
2.095655e+00 -1.613907e-03 0
2.095356e+00 -2.300532e-03 0
2.095014e+00 -2.708981e-03 0
2.094633e+00 -2.892227e-03 0
2.094214e+00 -2.895132e-03 0
2.093760e+00 -2.755513e-03 0
2.093273e+00 -2.505043e-03 0
2.092755e+00 -2.170030e-03 0
2.092206e+00 -1.772102e-03 0
2.091626e+00 -1.329035e-03 0
2.091013e+00 -8.563446e-04 0
2.090370e+00 -3.724646e-04 0
2.089701e+00 9.975339e-05 0
2.089005e+00 5.533086e-04 0
2.088266e+00 9.908230e-04 0
2.087468e+00 1.405692e-03 0
2.086605e+00 1.793523e-03 0
2.085674e+00 2.154330e-03 0
2.084675e+00 2.489508e-03 0
2.083606e+00 2.801876e-03 0
2.082471e+00 3.094163e-03 0
2.081272e+00 3.368564e-03 0
2.080012e+00 3.626761e-03 0
2.078693e+00 3.870050e-03 0
2.077318e+00 4.099463e-03 0
2.075891e+00 4.315867e-03 0
2.074414e+00 4.520026e-03 0
2.072888e+00 4.712631e-03 0
2.071318e+00 4.894309e-03 0
2.069704e+00 5.065627e-03 0
2.068050e+00 5.227090e-03 0
2.066356e+00 5.379164e-03 0
2.064626e+00 5.522284e-03 0
2.062861e+00 5.656875e-03 0
2.061063e+00 5.783349e-03 0
2.059233e+00 5.902107e-03 0
2.057373e+00 6.013526e-03 0
2.055485e+00 6.117958e-03 0
2.053571e+00 6.215734e-03 0
2.051631e+00 6.307168e-03 0
2.049666e+00 6.392563e-03 0
2.047680e+00 6.472213e-03 0
2.045671e+00 6.546403e-03 0
2.043642e+00 6.615405e-03 0
2.041594e+00 6.679477e-03 0
2.039528e+00 6.738860e-03 0
2.037444e+00 6.793786e-03 0
2.035344e+00 6.844475e-03 0
2.033229e+00 6.891138e-03 0
2.031099e+00 6.933979e-03 0
2.028955e+00 6.973196e-03 0
2.026798e+00 7.008972e-03 0
2.024629e+00 7.041483e-03 0
2.022449e+00 7.070893e-03 0
2.020257e+00 7.097360e-03 0
2.018055e+00 7.121032e-03 0
2.015843e+00 7.142053e-03 0
2.013623e+00 7.160559e-03 0
2.011393e+00 7.176676e-03 0
2.009156e+00 7.190522e-03 0
2.006911e+00 7.202209e-03 0
2.004658e+00 7.211845e-03 0
2.002399e+00 7.219532e-03 0
2.000134e+00 7.225372e-03 0
1.997863e+00 7.229460e-03 0
1.995586e+00 7.231880e-03 0
1.993304e+00 7.232713e-03 0
1.991017e+00 7.232028e-03 0
1.988725e+00 7.229890e-03 0
1.986430e+00 7.226363e-03 0
1.984130e+00 7.221509e-03 0
1.981827e+00 7.215389e-03 0
1.979520e+00 7.208059e-03 0
1.977211e+00 7.199565e-03 0
1.974898e+00 7.189947e-03 0
1.972583e+00 7.179235e-03 0
1.970266e+00 7.167450e-03 0
1.967947e+00 7.154610e-03 0
1.965626e+00 7.140732e-03 0
1.963303e+00 7.125829e-03 0
1.960979e+00 7.109914e-03 0
1.958654e+00 7.092991e-03 0
1.956328e+00 7.075061e-03 0
1.954002e+00 7.056115e-03 0
1.951675e+00 7.036138e-03 0
1.949348e+00 7.015111e-03 0
1.947022e+00 6.993018e-03 0
1.944696e+00 6.969837e-03 0
1.942370e+00 6.945546e-03 0
1.940046e+00 6.920120e-03 0
1.937723e+00 6.893528e-03 0
1.935401e+00 6.865730e-03 0
1.933082e+00 6.836682e-03 0
1.930764e+00 6.806337e-03 0
1.928449e+00 6.774640e-03 0
1.926137e+00 6.741529e-03 0
1.923829e+00 6.706938e-03 0
1.921523e+00 6.670789e-03 0
1.919222e+00 6.632990e-03 0
1.916925e+00 6.593428e-03 0
1.914633e+00 6.551965e-03 0
1.912347e+00 6.508420e-03 0
1.910066e+00 6.462558e-03 0
1.907791e+00 6.414072e-03 0
1.905523e+00 6.362538e-03 0
1.903263e+00 6.307370e-03 0
1.901011e+00 6.247747e-03 0
1.898767e+00 6.182489e-03 0
1.896534e+00 6.109878e-03 0
1.894311e+00 6.027429e-03 0
1.892098e+00 5.931659e-03 0
1.889895e+00 5.818291e-03 0
1.887699e+00 5.681904e-03 0
1.885499e+00 5.566321e-03 0
1.885499e+00 5.525473e-03 0
2.437498e+00 -3.691381e-04 0
2.437498e+00 -3.592306e-04 0
2.437590e+00 -3.196019e-04 0
2.437675e+00 -2.390292e-04 0
2.437751e+00 -1.143040e-04 0
2.437812e+00 5.845846e-05 0
2.437855e+00 2.843487e-04 0
2.437871e+00 5.701942e-04 0
2.437853e+00 9.240499e-04 0
2.437793e+00 1.355320e-03 0
2.437680e+00 1.874970e-03 0
2.437501e+00 2.495363e-03 0
2.437243e+00 3.230144e-03 0
2.436891e+00 4.094698e-03 0
2.436426e+00 5.106493e-03 0
2.435830e+00 6.285034e-03 0
2.435080e+00 7.652654e-03 0
2.434152e+00 9.235504e-03 0
2.433021e+00 1.106422e-02 0
2.431659e+00 1.317523e-02 0
2.430033e+00 1.561259e-02 0
2.428107e+00 1.843037e-02 0
2.425843e+00 2.169552e-02 0
2.423192e+00 2.549151e-02 0
2.420094e+00 2.992356e-02 0
2.416468e+00 3.512466e-02 0
2.412193e+00 4.126351e-02 0
2.407067e+00 4.855016e-02 0
2.400721e+00 5.722550e-02 0
2.392437e+00 6.748086e-02 0
2.380776e+00 7.912209e-02 0
2.362973e+00 9.045819e-02 0
2.334835e+00 9.546784e-02 0
2.301132e+00 8.543645e-02 0
2.285562e+00 6.521157e-02 0
2.280290e+00 4.653852e-02 0
2.279298e+00 3.226534e-02 0
2.279800e+00 2.194827e-02 0
2.280690e+00 1.457747e-02 0
2.281572e+00 9.300127e-03 0
2.282321e+00 5.507951e-03 0
2.282897e+00 2.783971e-03 0
2.283293e+00 8.414751e-04 0
2.283527e+00 -5.242361e-04 0
2.283606e+00 -1.456766e-03 0
2.283548e+00 -2.051836e-03 0
2.283374e+00 -2.379547e-03 0
2.283104e+00 -2.494371e-03 0
2.282755e+00 -2.440141e-03 0
2.282343e+00 -2.252803e-03 0
2.281878e+00 -1.962071e-03 0
2.281370e+00 -1.592465e-03 0
2.280827e+00 -1.163747e-03 0
2.280253e+00 -6.908216e-04 0
2.279649e+00 -1.928731e-04 0
2.279020e+00 3.118150e-04 0
2.278362e+00 8.172309e-04 0
2.277666e+00 1.317505e-03 0
2.276930e+00 1.804157e-03 0
2.276153e+00 2.271170e-03 0
2.275331e+00 2.714780e-03 0
2.274462e+00 3.133683e-03 0
2.273545e+00 3.528147e-03 0
2.272579e+00 3.899491e-03 0
2.271564e+00 4.249374e-03 0
2.270503e+00 4.579399e-03 0
2.269396e+00 4.890969e-03 0
2.268246e+00 5.185287e-03 0
2.267054e+00 5.463394e-03 0
2.265822e+00 5.726218e-03 0
2.264552e+00 5.974607e-03 0
2.263246e+00 6.209335e-03 0