<?xml version="1.0"?>
<VTKFile type="StructuredGrid">
<StructuredGrid WholeExtent="0 158 0 30 0 0 ">
<Piece Extent="0 158 0 30 0 0 ">
<Points>
<DataArray type="Float64" format="ascii" NumberOfComponents="3">
0.000000e+00 0.000000e+00 0.000000e+00
3.164557e-02 0.000000e+00 0.000000e+00
6.329114e-02 0.000000e+00 0.000000e+00
9.493671e-02 0.000000e+00 0.000000e+00
1.265823e-01 0.000000e+00 0.000000e+00
1.582278e-01 0.000000e+00 0.000000e+00
1.898734e-01 0.000000e+00 0.000000e+00
2.215190e-01 0.000000e+00 0.000000e+00
2.531646e-01 0.000000e+00 0.000000e+00
2.848101e-01 0.000000e+00 0.000000e+00
3.164557e-01 0.000000e+00 0.000000e+00
3.481013e-01 0.000000e+00 0.000000e+00
3.797468e-01 0.000000e+00 0.000000e+00
4.113924e-01 0.000000e+00 0.000000e+00
4.430380e-01 0.000000e+00 0.000000e+00
4.746835e-01 0.000000e+00 0.000000e+00
5.063291e-01 0.000000e+00 0.000000e+00
5.379747e-01 0.000000e+00 0.000000e+00
5.696203e-01 0.000000e+00 0.000000e+00
6.012658e-01 0.000000e+00 0.000000e+00
6.329114e-01 0.000000e+00 0.000000e+00
6.645570e-01 0.000000e+00 0.000000e+00
6.962025e-01 0.000000e+00 0.000000e+00
7.278481e-01 0.000000e+00 0.000000e+00
7.594937e-01 0.000000e+00 0.000000e+00
7.911392e-01 0.000000e+00 0.000000e+00
8.227848e-01 0.000000e+00 0.000000e+00
8.544304e-01 0.000000e+00 0.000000e+00
8.860759e-01 0.000000e+00 0.000000e+00
9.177215e-01 0.000000e+00 0.000000e+00
9.493671e-01 0.000000e+00 0.000000e+00
9.810127e-01 0.000000e+00 0.000000e+00
1.012658e+00 0.000000e+00 0.000000e+00
1.044304e+00 0.000000e+00 0.000000e+00
1.075949e+00 0.000000e+00 0.000000e+00
1.107595e+00 0.000000e+00 0.000000e+00
1.139241e+00 0.000000e+00 0.000000e+00
1.170886e+00 0.000000e+00 0.000000e+00
1.202532e+00 0.000000e+00 0.000000e+00
1.234177e+00 0.000000e+00 0.000000e+00
1.265823e+00 0.000000e+00 0.000000e+00
1.297468e+00 0.000000e+00 0.000000e+00
1.329114e+00 0.000000e+00 0.000000e+00
1.360759e+00 0.000000e+00 0.000000e+00
1.392405e+00 0.000000e+00 0.000000e+00
1.424051e+00 0.000000e+00 0.000000e+00
1.455696e+00 0.000000e+00 0.000000e+00
1.487342e+00 0.000000e+00 0.000000e+00
1.518987e+00 0.000000e+00 0.000000e+00
1.550633e+00 0.000000e+00 0.000000e+00
1.582278e+00 0.000000e+00 0.000000e+00
1.613924e+00 0.000000e+00 0.000000e+00
1.645570e+00 0.000000e+00 0.000000e+00
1.677215e+00 0.000000e+00 0.000000e+00
1.708861e+00 0.000000e+00 0.000000e+00
1.740506e+00 0.000000e+00 0.000000e+00
1.772152e+00 0.000000e+00 0.000000e+00
1.803797e+00 0.000000e+00 0.000000e+00
1.835443e+00 0.000000e+00 0.000000e+00
1.867089e+00 0.000000e+00 0.000000e+00
1.898734e+00 0.000000e+00 0.000000e+00
1.930380e+00 0.000000e+00 0.000000e+00
1.962025e+00 0.000000e+00 0.000000e+00
1.993671e+00 0.000000e+00 0.000000e+00
2.025316e+00 0.000000e+00 0.000000e+00
2.056962e+00 0.000000e+00 0.000000e+00
2.088608e+00 0.000000e+00 0.000000e+00
2.120253e+00 0.000000e+00 0.000000e+00
2.151899e+00 0.000000e+00 0.000000e+00
2.183544e+00 0.000000e+00 0.000000e+00
2.215190e+00 0.000000e+00 0.000000e+00
2.246835e+00 0.000000e+00 0.000000e+00
2.278481e+00 0.000000e+00 0.000000e+00
2.310127e+00 0.000000e+00 0.000000e+00
2.341772e+00 0.000000e+00 0.000000e+00
2.373418e+00 0.000000e+00 0.000000e+00
2.405063e+00 0.000000e+00 0.000000e+00
2.436709e+00 0.000000e+00 0.000000e+00
2.468354e+00 0.000000e+00 0.000000e+00
2.500000e+00 0.000000e+00 0.000000e+00
2.531646e+00 0.000000e+00 0.000000e+00
2.563291e+00 0.000000e+00 0.000000e+00
2.594937e+00 0.000000e+00 0.000000e+00
2.626582e+00 0.000000e+00 0.000000e+00
2.658228e+00 0.000000e+00 0.000000e+00
2.689873e+00 0.000000e+00 0.000000e+00
2.721519e+00 0.000000e+00 0.000000e+00
2.753165e+00 0.000000e+00 0.000000e+00
2.784810e+00 0.000000e+00 0.000000e+00
2.816456e+00 0.000000e+00 0.000000e+00
2.848101e+00 0.000000e+00 0.000000e+00
2.879747e+00 0.000000e+00 0.000000e+00
2.911392e+00 0.000000e+00 0.000000e+00
2.943038e+00 0.000000e+00 0.000000e+00
2.974684e+00 0.000000e+00 0.000000e+00
3.006329e+00 0.000000e+00 0.000000e+00
3.037975e+00 0.000000e+00 0.000000e+00
3.069620e+00 0.000000e+00 0.000000e+00
3.101266e+00 0.000000e+00 0.000000e+00
3.132911e+00 0.000000e+00 0.000000e+00
3.164557e+00 0.000000e+00 0.000000e+00
3.196203e+00 0.000000e+00 0.000000e+00
3.227848e+00 0.000000e+00 0.000000e+00
3.259494e+00 0.000000e+00 0.000000e+00
3.291139e+00 0.000000e+00 0.000000e+00
3.322785e+00 0.000000e+00 0.000000e+00
3.354430e+00 0.000000e+00 0.000000e+00
3.386076e+00 0.000000e+00 0.000000e+00
3.417722e+00 0.000000e+00 0.000000e+00
3.449367e+00 0.000000e+00 0.000000e+00
3.481013e+00 0.000000e+00 0.000000e+00
3.512658e+00 0.000000e+00 0.000000e+00
3.544304e+00 0.000000e+00 0.000000e+00
3.575949e+00 0.000000e+00 0.000000e+00
3.607595e+00 0.000000e+00 0.000000e+00
3.639241e+00 0.000000e+00 0.000000e+00
3.670886e+00 0.000000e+00 0.000000e+00
3.702532e+00 0.000000e+00 0.000000e+00
3.734177e+00 0.000000e+00 0.000000e+00
3.765823e+00 0.000000e+00 0.000000e+00
3.797468e+00 0.000000e+00 0.000000e+00
3.829114e+00 0.000000e+00 0.000000e+00
3.860759e+00 0.000000e+00 0.000000e+00
3.892405e+00 0.000000e+00 0.000000e+00
3.924051e+00 0.000000e+00 0.000000e+00
3.955696e+00 0.000000e+00 0.000000e+00
3.987342e+00 0.000000e+00 0.000000e+00
4.018987e+00 0.000000e+00 0.000000e+00
4.050633e+00 0.000000e+00 0.000000e+00
4.082278e+00 0.000000e+00 0.000000e+00
4.113924e+00 0.000000e+00 0.000000e+00
4.145570e+00 0.000000e+00 0.000000e+00
4.177215e+00 0.000000e+00 0.000000e+00
4.208861e+00 0.000000e+00 0.000000e+00
4.240506e+00 0.000000e+00 0.000000e+00
4.272152e+00 0.000000e+00 0.000000e+00
4.303797e+00 0.000000e+00 0.000000e+00
4.335443e+00 0.000000e+00 0.000000e+00
4.367089e+00 0.000000e+00 0.000000e+00
4.398734e+00 0.000000e+00 0.000000e+00
4.430380e+00 0.000000e+00 0.000000e+00
4.462025e+00 0.000000e+00 0.000000e+00
4.493671e+00 0.000000e+00 0.000000e+00
4.525316e+00 0.000000e+00 0.000000e+00
4.556962e+00 0.000000e+00 0.000000e+00
4.588608e+00 0.000000e+00 0.000000e+00
4.620253e+00 0.000000e+00 0.000000e+00
4.651899e+00 0.000000e+00 0.000000e+00
4.683544e+00 0.000000e+00 0.000000e+00
4.715190e+00 0.000000e+00 0.000000e+00
4.746835e+00 0.000000e+00 0.000000e+00
4.778481e+00 0.000000e+00 0.000000e+00
4.810127e+00 0.000000e+00 0.000000e+00
4.841772e+00 0.000000e+00 0.000000e+00
4.873418e+00 0.000000e+00 0.000000e+00
4.905063e+00 0.000000e+00 0.000000e+00
4.936709e+00 0.000000e+00 0.000000e+00
4.968354e+00 0.000000e+00 0.000000e+00
5.000000e+00 0.000000e+00 0.000000e+00
0.000000e+00 3.333333e-02 0.000000e+00
3.164557e-02 3.333333e-02 0.000000e+00
6.329114e-02 3.333333e-02 0.000000e+00
9.493671e-02 3.333333e-02 0.000000e+00
1.265823e-01 3.333333e-02 0.000000e+00
1.582278e-01 3.333333e-02 0.000000e+00
1.898734e-01 3.333333e-02 0.000000e+00
2.215190e-01 3.333333e-02 0.000000e+00
2.531646e-01 3.333333e-02 0.000000e+00
2.848101e-01 3.333333e-02 0.000000e+00
3.164557e-01 3.333333e-02 0.000000e+00
3.481013e-01 3.333333e-02 0.000000e+00
3.797468e-01 3.333333e-02 0.000000e+00
4.113924e-01 3.333333e-02 0.000000e+00
4.430380e-01 3.333333e-02 0.000000e+00
4.746835e-01 3.333333e-02 0.000000e+00
5.063291e-01 3.333333e-02 0.000000e+00
5.379747e-01 3.333333e-02 0.000000e+00
5.696203e-01 3.333333e-02 0.000000e+00
6.012658e-01 3.333333e-02 0.000000e+00
6.329114e-01 3.333333e-02 0.000000e+00
6.645570e-01 3.333333e-02 0.000000e+00
6.962025e-01 3.333333e-02 0.000000e+00
7.278481e-01 3.333333e-02 0.000000e+00
7.594937e-01 3.333333e-02 0.000000e+00
7.911392e-01 3.333333e-02 0.000000e+00
8.227848e-01 3.333333e-02 0.000000e+00
8.544304e-01 3.333333e-02 0.000000e+00
8.860759e-01 3.333333e-02 0.000000e+00
9.177215e-01 3.333333e-02 0.000000e+00
9.493671e-01 3.333333e-02 0.000000e+00
9.810127e-01 3.333333e-02 0.000000e+00
1.012658e+00 3.333333e-02 0.000000e+00
1.044304e+00 3.333333e-02 0.000000e+00
1.075949e+00 3.333333e-02 0.000000e+00
1.107595e+00 3.333333e-02 0.000000e+00
1.139241e+00 3.333333e-02 0.000000e+00
1.170886e+00 3.333333e-02 0.000000e+00
1.202532e+00 3.333333e-02 0.000000e+00
1.234177e+00 3.333333e-02 0.000000e+00
1.265823e+00 3.333333e-02 0.000000e+00
1.297468e+00 3.333333e-02 0.000000e+00
1.329114e+00 3.333333e-02 0.000000e+00
1.360759e+00 3.333333e-02 0.000000e+00
1.392405e+00 3.333333e-02 0.000000e+00
1.424051e+00 3.333333e-02 0.000000e+00
1.455696e+00 3.333333e-02 0.000000e+00
1.487342e+00 3.333333e-02 0.000000e+00
1.518987e+00 3.333333e-02 0.000000e+00
1.550633e+00 3.333333e-02 0.000000e+00
1.582278e+00 3.333333e-02 0.000000e+00
1.613924e+00 3.333333e-02 0.000000e+00
1.645570e+00 3.333333e-02 0.000000e+00
1.677215e+00 3.333333e-02 0.000000e+00
1.708861e+00 3.333333e-02 0.000000e+00
1.740506e+00 3.333333e-02 0.000000e+00
1.772152e+00 3.333333e-02 0.000000e+00
1.803797e+00 3.333333e-02 0.000000e+00
1.835443e+00 3.333333e-02 0.000000e+00
1.867089e+00 3.333333e-02 0.000000e+00
1.898734e+00 3.333333e-02 0.000000e+00
1.930380e+00 3.333333e-02 0.000000e+00
1.962025e+00 3.333333e-02 0.000000e+00
1.993671e+00 3.333333e-02 0.000000e+00
2.025316e+00 3.333333e-02 0.000000e+00
2.056962e+00 3.333333e-02 0.000000e+00
2.088608e+00 3.333333e-02 0.000000e+00
2.120253e+00 3.333333e-02 0.000000e+00
2.151899e+00 3.333333e-02 0.000000e+00
2.183544e+00 3.333333e-02 0.000000e+00
2.215190e+00 3.333333e-02 0.000000e+00
2.246835e+00 3.333333e-02 0.000000e+00
2.278481e+00 3.333333e-02 0.000000e+00
2.310127e+00 3.333333e-02 0.000000e+00
2.341772e+00 3.333333e-02 0.000000e+00
2.373418e+00 3.333333e-02 0.000000e+00
2.405063e+00 3.333333e-02 0.000000e+00
2.436709e+00 3.333333e-02 0.000000e+00
2.468354e+00 3.333333e-02 0.000000e+00
2.500000e+00 3.333333e-02 0.000000e+00
2.531646e+00 3.333333e-02 0.000000e+00
2.563291e+00 3.333333e-02 0.000000e+00
2.594937e+00 3.333333e-02 0.000000e+00
2.626582e+00 3.333333e-02 0.000000e+00
2.658228e+00 3.333333e-02 0.000000e+00
2.689873e+00 3.333333e-02 0.000000e+00
2.721519e+00 3.333333e-02 0.000000e+00
2.753165e+00 3.333333e-02 0.000000e+00
2.784810e+00 3.333333e-02 0.000000e+00
2.816456e+00 3.333333e-02 0.000000e+00
2.848101e+00 3.333333e-02 0.000000e+00
2.879747e+00 3.333333e-02 0.000000e+00
[...]
<PointData>
<DataArray Name="Velocity" type="Float64" format="ascii" NumberOfComponents="3">
0.000000e+00 0.000000e+00 0
0.000000e+00 0.000000e+00 0
0.000000e+00 0.000000e+00 0
0.000000e+00 0.000000e+00 0
0.000000e+00 0.000000e+00 0
0.000000e+00 0.000000e+00 0
0.000000e+00 0.000000e+00 0
0.000000e+00 0.000000e+00 0
0.000000e+00 0.000000e+00 0
0.000000e+00 0.000000e+00 0
0.000000e+00 0.000000e+00 0
0.000000e+00 0.000000e+00 0
0.000000e+00 0.000000e+00 0
0.000000e+00 0.000000e+00 0
0.000000e+00 0.000000e+00 0
0.000000e+00 0.000000e+00 0
0.000000e+00 0.000000e+00 0
0.000000e+00 0.000000e+00 0
0.000000e+00 0.000000e+00 0
3.196605e-17 0.000000e+00 0
0.000000e+00 0.000000e+00 0
0.000000e+00 0.000000e+00 0
0.000000e+00 0.000000e+00 0
3.306941e-18 0.000000e+00 0
0.000000e+00 0.000000e+00 0
0.000000e+00 0.000000e+00 0
0.000000e+00 0.000000e+00 0
-4.838738e-17 0.000000e+00 0
0.000000e+00 0.000000e+00 0
0.000000e+00 0.000000e+00 0
0.000000e+00 0.000000e+00 0
-2.037324e-17 0.000000e+00 0
0.000000e+00 0.000000e+00 0
0.000000e+00 0.000000e+00 0
0.000000e+00 0.000000e+00 0
0.000000e+00 0.000000e+00 0
0.000000e+00 0.000000e+00 0
0.000000e+00 0.000000e+00 0
-8.105652e-18 0.000000e+00 0
0.000000e+00 0.000000e+00 0
0.000000e+00 0.000000e+00 0
0.000000e+00 0.000000e+00 0
0.000000e+00 0.000000e+00 0
0.000000e+00 0.000000e+00 0
0.000000e+00 0.000000e+00 0
0.000000e+00 0.000000e+00 0
-1.545834e-17 0.000000e+00 0
0.000000e+00 0.000000e+00 0
0.000000e+00 0.000000e+00 0
0.000000e+00 0.000000e+00 0
0.000000e+00 0.000000e+00 0
0.000000e+00 0.000000e+00 0
0.000000e+00 0.000000e+00 0
0.000000e+00 0.000000e+00 0
7.283348e-18 0.000000e+00 0
0.000000e+00 0.000000e+00 0
0.000000e+00 0.000000e+00 0
0.000000e+00 0.000000e+00 0
0.000000e+00 0.000000e+00 0
0.000000e+00 0.000000e+00 0
0.000000e+00 0.000000e+00 0
0.000000e+00 0.000000e+00 0
6.834446e-18 0.000000e+00 0
0.000000e+00 0.000000e+00 0
0.000000e+00 0.000000e+00 0
0.000000e+00 0.000000e+00 0
0.000000e+00 0.000000e+00 0
0.000000e+00 0.000000e+00 0
0.000000e+00 0.000000e+00 0
0.000000e+00 0.000000e+00 0
0.000000e+00 0.000000e+00 0
0.000000e+00 0.000000e+00 0
0.000000e+00 0.000000e+00 0
0.000000e+00 0.000000e+00 0
0.000000e+00 0.000000e+00 0
0.000000e+00 0.000000e+00 0
0.000000e+00 0.000000e+00 0
0.000000e+00 0.000000e+00 0
0.000000e+00 0.000000e+00 0
0.000000e+00 0.000000e+00 0
0.000000e+00 0.000000e+00 0
0.000000e+00 0.000000e+00 0
0.000000e+00 0.000000e+00 0
0.000000e+00 0.000000e+00 0
0.000000e+00 0.000000e+00 0
0.000000e+00 0.000000e+00 0
0.000000e+00 0.000000e+00 0
0.000000e+00 0.000000e+00 0
0.000000e+00 0.000000e+00 0
0.000000e+00 0.000000e+00 0
0.000000e+00 0.000000e+00 0
0.000000e+00 0.000000e+00 0
0.000000e+00 0.000000e+00 0
0.000000e+00 0.000000e+00 0
0.000000e+00 0.000000e+00 0
0.000000e+00 0.000000e+00 0
0.000000e+00 0.000000e+00 0
0.000000e+00 0.000000e+00 0
0.000000e+00 0.000000e+00 0
0.000000e+00 0.000000e+00 0
0.000000e+00 0.000000e+00 0
0.000000e+00 0.000000e+00 0
0.000000e+00 0.000000e+00 0
0.000000e+00 0.000000e+00 0
0.000000e+00 0.000000e+00 0
0.000000e+00 0.000000e+00 0
0.000000e+00 0.000000e+00 0
0.000000e+00 0.000000e+00 0
0.000000e+00 0.000000e+00 0
0.000000e+00 0.000000e+00 0
0.000000e+00 0.000000e+00 0
0.000000e+00 0.000000e+00 0
0.000000e+00 0.000000e+00 0
0.000000e+00 0.000000e+00 0
0.000000e+00 0.000000e+00 0
0.000000e+00 0.000000e+00 0
0.000000e+00 0.000000e+00 0
0.000000e+00 0.000000e+00 0
0.000000e+00 0.000000e+00 0
0.000000e+00 0.000000e+00 0
0.000000e+00 0.000000e+00 0
0.000000e+00 0.000000e+00 0
0.000000e+00 0.000000e+00 0
0.000000e+00 0.000000e+00 0
0.000000e+00 0.000000e+00 0
0.000000e+00 0.000000e+00 0
0.000000e+00 0.000000e+00 0
0.000000e+00 0.000000e+00 0
0.000000e+00 0.000000e+00 0
0.000000e+00 0.000000e+00 0
0.000000e+00 0.000000e+00 0
0.000000e+00 0.000000e+00 0
0.000000e+00 0.000000e+00 0
0.000000e+00 0.000000e+00 0
0.000000e+00 0.000000e+00 0
0.000000e+00 0.000000e+00 0
0.000000e+00 0.000000e+00 0
0.000000e+00 0.000000e+00 0
0.000000e+00 0.000000e+00 0
0.000000e+00 0.000000e+00 0
0.000000e+00 0.000000e+00 0
0.000000e+00 0.000000e+00 0
0.000000e+00 0.000000e+00 0
0.000000e+00 0.000000e+00 0
0.000000e+00 0.000000e+00 0
0.000000e+00 0.000000e+00 0
0.000000e+00 0.000000e+00 0
0.000000e+00 0.000000e+00 0
0.000000e+00 0.000000e+00 0
0.000000e+00 0.000000e+00 0
0.000000e+00 0.000000e+00 0
0.000000e+00 0.000000e+00 0
0.000000e+00 0.000000e+00 0
0.000000e+00 0.000000e+00 0
0.000000e+00 0.000000e+00 0
0.000000e+00 0.000000e+00 0
0.000000e+00 0.000000e+00 0
0.000000e+00 0.000000e+00 0
0.000000e+00 0.000000e+00 0
1.986279e+00 -2.256345e-05 0
1.986279e+00 -2.295499e-05 0
1.986297e+00 -1.613455e-05 0
1.986302e+00 2.361351e-06 0
1.986286e+00 2.979026e-05 0
1.986238e+00 6.742807e-05 0
1.986150e+00 1.162918e-04 0
1.986009e+00 1.775415e-04 0
1.985802e+00 2.525521e-04 0
1.985517e+00 3.429564e-04 0
1.985138e+00 4.506180e-04 0
1.984648e+00 5.776160e-04 0
1.984026e+00 7.262634e-04 0
1.983252e+00 8.990870e-04 0
1.982301e+00 1.098936e-03 0
1.981145e+00 1.329081e-03 0
1.979755e+00 1.593286e-03 0
1.978095e+00 1.895977e-03 0
1.976127e+00 2.242319e-03 0
1.973806e+00 2.638374e-03 0
1.971082e+00 3.091410e-03 0
1.967898e+00 3.610062e-03 0
1.964185e+00 4.204636e-03 0
1.959866e+00 4.887291e-03 0
1.954850e+00 5.671655e-03 0
1.949032e+00 6.571743e-03 0
1.942293e+00 7.598861e-03 0
1.934504e+00 8.754487e-03 0
1.925536e+00 1.001642e-02 0
1.915295e+00 1.131440e-02 0
1.903778e+00 1.249551e-02 0
1.891182e+00 1.329696e-02 0
1.878048e+00 1.338338e-02 0
1.865325e+00 1.253574e-02 0
1.854065e+00 1.089806e-02 0
1.844807e+00 8.888683e-03 0
1.837590e+00 6.892060e-03 0
1.832177e+00 5.131167e-03 0
1.828237e+00 3.685678e-03 0
1.825448e+00 2.550121e-03 0
1.823534e+00 1.681269e-03 0
1.822278e+00 1.024701e-03 0
1.821512e+00 5.241183e-04 0
1.821115e+00 8.724259e-05 0
1.820992e+00 -3.042524e-04 0
1.821087e+00 -6.025428e-04 0
1.821339e+00 -8.109062e-04 0
1.821694e+00 -9.409890e-04 0
1.822106e+00 -1.004997e-03 0
1.822538e+00 -1.014603e-03 0
1.822960e+00 -9.803855e-04 0
1.823347e+00 -9.115997e-04 0
1.823681e+00 -8.161382e-04 0
1.823946e+00 -7.005223e-04 0
1.824133e+00 -5.695826e-04 0
1.824235e+00 -4.267929e-04 0
1.824252e+00 -2.766188e-04 0
1.824194e+00 -1.334593e-04 0
1.824067e+00 -2.058717e-05 0
1.823876e+00 6.029361e-05 0
1.823624e+00 1.257310e-04 0
1.823318e+00 1.841495e-04 0
1.822961e+00 2.381993e-04 0
1.822555e+00 2.888713e-04 0
1.822103e+00 3.366064e-04 0
1.821609e+00 3.816414e-04 0
1.821073e+00 4.241363e-04 0
1.820499e+00 4.642232e-04 0
1.819888e+00 5.020209e-04 0
1.819243e+00 5.376334e-04 0
1.818565e+00 5.711472e-04 0
1.817857e+00 6.026346e-04 0
1.817120e+00 6.321647e-04 0
1.816356e+00 6.598148e-04 0
1.815567e+00 6.856737e-04 0
1.814754e+00 7.098351e-04 0
1.813919e+00 7.323850e-04 0
1.813064e+00 7.533947e-04 0
1.812189e+00 7.729230e-04 0
1.811296e+00 7.910265e-04 0
1.810386e+00 8.077698e-04 0
1.809460e+00 8.232263e-04 0
1.808521e+00 8.374716e-04 0
1.807568e+00 8.505730e-04 0
1.806602e+00 8.625855e-04 0
1.805626e+00 8.735549e-04 0
1.804639e+00 8.835268e-04 0
1.803643e+00 8.925514e-04 0
1.802638e+00 9.006835e-04 0
1.801625e+00 9.079769e-04 0
1.800605e+00 9.144789e-04 0
1.799579e+00 9.202282e-04 0
1.798547e+00 9.252584e-04 0
1.797511e+00 9.296018e-04 0
1.796470e+00 9.332929e-04 0
1.795425e+00 9.363679e-04 0
1.794376e+00 9.388628e-04 0
1.793325e+00 9.408114e-04 0
1.792272e+00 9.422436e-04 0
1.791217e+00 9.431854e-04 0
1.790161e+00 9.436598e-04 0
1.789104e+00 9.436879e-04 0
1.788046e+00 9.432907e-04 0
1.786988e+00 9.424903e-04 0
1.785931e+00 9.413102e-04 0
1.784874e+00 9.397742e-04 0
1.783818e+00 9.379039e-04 0
1.782763e+00 9.357166e-04 0
1.781709e+00 9.332254e-04 0
1.780658e+00 9.304410e-04 0
1.779609e+00 9.273748e-04 0
1.778561e+00 9.240401e-04 0
1.777517e+00 9.204522e-04 0
1.776475e+00 9.166251e-04 0
1.775437e+00 9.125705e-04 0
1.774401e+00 9.082967e-04 0
1.773369e+00 9.038100e-04 0
1.772341e+00 8.991167e-04 0
1.771316e+00 8.942241e-04 0
1.770296e+00 8.891397e-04 0
1.769280e+00 8.838708e-04 0
1.768268e+00 8.784237e-04 0
1.767260e+00 8.728031e-04 0
1.766258e+00 8.670129e-04 0
1.765260e+00 8.610567e-04 0
1.764267e+00 8.549382e-04 0
1.763280e+00 8.486605e-04 0
1.762298e+00 8.422268e-04 0
1.761321e+00 8.356395e-04 0
1.760350e+00 8.289005e-04 0
1.759385e+00 8.220111e-04 0
1.758426e+00 8.149726e-04 0
1.757473e+00 8.077857e-04 0
1.756526e+00 8.004509e-04 0
1.755586e+00 7.929684e-04 0
1.754652e+00 7.853380e-04 0
1.753725e+00 7.775594e-04 0
1.752805e+00 7.696316e-04 0
1.751891e+00 7.615532e-04 0
1.750985e+00 7.533218e-04 0
1.750086e+00 7.449344e-04 0
1.749195e+00 7.363860e-04 0
1.748311e+00 7.276691e-04 0
1.747435e+00 7.187735e-04 0
1.746567e+00 7.096831e-04 0
1.745707e+00 7.003752e-04 0
1.744856e+00 6.908159e-04 0
1.744013e+00 6.809542e-04 0
1.743179e+00 6.707136e-04 0
1.742355e+00 6.599775e-04 0
1.741541e+00 6.485649e-04 0
1.740737e+00 6.361859e-04 0
1.739945e+00 6.223543e-04 0
1.739166e+00 6.061922e-04 0
1.738403e+00 5.857914e-04 0
1.737661e+00 5.575722e-04 0
1.736945e+00 4.885343e-04 0
1.736270e+00 5.517927e-04 0
1.736270e+00 6.674643e-04 0
3.201806e+00 -4.506706e-05 0
3.201806e+00 -4.147283e-05 0
3.201822e+00 -2.448865e-05 0
3.201827e+00 1.171314e-05 0
3.201813e+00 6.725494e-05 0
3.201770e+00 1.434543e-04 0
3.201690e+00 2.421905e-04 0
3.201563e+00 3.657862e-04 0
3.201377e+00 5.170288e-04 0
3.201120e+00 6.991732e-04 0
3.200779e+00 9.159094e-04 0
3.200337e+00 1.171390e-03 0
3.199777e+00 1.470224e-03 0
3.199080e+00 1.817564e-03 0
3.198223e+00 2.219231e-03 0
3.197182e+00 2.681821e-03 0
3.195929e+00 3.212927e-03 0
3.194434e+00 3.821350e-03 0
3.192661e+00 4.517366e-03 0
3.190571e+00 5.313193e-03 0
3.188119e+00 6.223396e-03 0
3.185252e+00 7.265469e-03 0
3.181912e+00 8.460442e-03 0
3.178028e+00 9.833104e-03 0
3.173516e+00 1.141176e-02 0
3.168281e+00 1.322636e-02 0
3.162206e+00 1.530282e-02 0
3.155156e+00 1.765008e-02 0
3.146975e+00 2.023270e-02 0
3.137504e+00 2.291913e-02 0
3.126620e+00 2.539996e-02 0
3.114364e+00 2.710270e-02 0
3.101210e+00 2.723602e-02 0
3.088442e+00 2.526228e-02 0
3.077720e+00 2.161236e-02 0
3.069475e+00 1.735283e-02 0
3.063415e+00 1.330333e-02 0
3.059062e+00 9.852276e-03 0
3.055974e+00 7.088492e-03 0
3.053811e+00 4.953816e-03 0
3.052318e+00 3.339132e-03 0
3.051312e+00 2.130405e-03 0
3.050658e+00 1.224934e-03 0
3.050250e+00 5.472701e-04 0
3.049964e+00 2.909470e-05 0
3.049748e+00 -3.652596e-04 0
3.049577e+00 -6.387216e-04 0
3.049430e+00 -8.078519e-04 0
3.049293e+00 -8.895704e-04 0
3.049153e+00 -8.996143e-04 0
3.049002e+00 -8.519921e-04 0
3.048833e+00 -7.588858e-04 0
3.048639e+00 -6.307822e-04 0
3.048418e+00 -4.767623e-04 0
3.048168e+00 -3.040792e-04 0
3.047893e+00 -1.251502e-04 0
3.047599e+00 4.272235e-05 0
3.047285e+00 1.947901e-04 0
3.046947e+00 3.356936e-04 0
3.046569e+00 4.663649e-04 0
3.046144e+00 5.869469e-04 0
3.045672e+00 6.990566e-04 0
3.045156e+00 8.042008e-04 0
3.044598e+00 9.033089e-04 0
3.043998e+00 9.969387e-04 0
3.043361e+00 1.085456e-03 0
3.042687e+00 1.169134e-03 0
3.041978e+00 1.248202e-03 0
3.041236e+00 1.322861e-03 0
3.040464e+00 1.393290e-03 0
3.039662e+00 1.459648e-03 0
3.038833e+00 1.522084e-03 0
3.037978e+00 1.580751e-03 0
3.037098e+00 1.635808e-03 0
3.036195e+00 1.687420e-03 0
3.035271e+00 1.735751e-03 0
3.034326e+00 1.780951e-03 0
3.033363e+00 1.823153e-03 0
3.032381e+00 1.862481e-03 0
3.031383e+00 1.899062e-03 0
3.030369e+00 1.933029e-03 0
3.029341e+00 1.964518e-03 0
3.028299e+00 1.993661e-03 0
3.027245e+00 2.020577e-03 0
3.026179e+00 2.045370e-03 0
3.025102e+00 2.068138e-03 0
3.024016e+00 2.088977e-03 0
3.022920e+00 2.107989e-03 0
3.021815e+00 2.125274e-03 0
3.020703e+00 2.140927e-03 0
3.019584e+00 2.155033e-03 0
3.018458e+00 2.167668e-03 0
3.017327e+00 2.178901e-03 0
3.016190e+00 2.188801e-03 0
3.015048e+00 2.197437e-03 0
3.013902e+00 2.204876e-03 0
3.012753e+00 2.211183e-03 0
3.011600e+00 2.216420e-03 0
3.010444e+00 2.220642e-03 0
3.009286e+00 2.223900e-03 0
3.008125e+00 2.226240e-03 0
3.006963e+00 2.227707e-03 0
3.005800e+00 2.228343e-03 0
3.004635e+00 2.228193e-03 0
3.003470e+00 2.227299e-03 0
3.002305e+00 2.225704e-03 0
3.001140e+00 2.223444e-03 0
2.999974e+00 2.220552e-03 0
2.998810e+00 2.217055e-03 0
2.997646e+00 2.212976e-03 0
2.996482e+00 2.208341e-03 0
2.995321e+00 2.203178e-03 0
2.994160e+00 2.197512e-03 0
2.993001e+00 2.191366e-03 0
2.991844e+00 2.184761e-03 0
2.990689e+00 2.177713e-03 0
2.989536e+00 2.170235e-03 0
2.988386e+00 2.162341e-03 0
2.987238e+00 2.154047e-03 0
2.986093e+00 2.145365e-03 0
2.984951e+00 2.136307e-03 0
2.983812e+00 2.126885e-03 0
2.982676e+00 2.117107e-03 0
2.981544e+00 2.106982e-03 0
2.980415e+00 2.096516e-03 0
2.979290e+00 2.085716e-03 0
2.978169e+00 2.074588e-03 0
2.977051e+00 2.063137e-03 0
2.975938e+00 2.051367e-03 0
2.974829e+00 2.039281e-03 0
2.973725e+00 2.026882e-03 0
2.972625e+00 2.014171e-03 0
2.971530e+00 2.001151e-03 0
2.970439e+00 1.987821e-03 0
2.969354e+00 1.974181e-03 0
2.968274e+00 1.960231e-03 0
2.967199e+00 1.945970e-03 0
2.966129e+00 1.931396e-03 0
2.965066e+00 1.916504e-03 0
2.964007e+00 1.901291e-03 0
2.962955e+00 1.885749e-03 0
2.961909e+00 1.869869e-03 0
2.960868e+00 1.853636e-03 0
2.959835e+00 1.837028e-03 0
2.958807e+00 1.820014e-03 0
2.957787e+00 1.802548e-03 0
2.956773e+00 1.784562e-03 0
2.955766e+00 1.765956e-03 0
2.954767e+00 1.746578e-03 0
2.953776e+00 1.726201e-03 0
2.952792e+00 1.704471e-03 0
2.951818e+00 1.680835e-03 0
2.950853e+00 1.654389e-03 0
2.949898e+00 1.623593e-03 0
2.948956e+00 1.585729e-03 0
2.948026e+00 1.535725e-03 0
2.947110e+00 1.465378e-03 0
2.946181e+00 1.447944e-03 0
2.946181e+00 1.471988e-03 0
3.909211e+00 -6.996820e-05 0
3.909211e+00 -6.361817e-05 0
3.909232e+00 -3.832445e-05 0
3.909245e+00 1.254432e-05 0
3.909244e+00 9.021087e-05 0
3.909222e+00 1.966653e-04 0
3.909173e+00 3.345284e-04 0
3.909089e+00 5.070847e-04 0
3.908962e+00 7.182879e-04 0
3.908783e+00 9.727059e-04 0
3.908540e+00 1.275532e-03 0
3.908223e+00 1.632588e-03 0
3.907818e+00 2.050357e-03 0
3.907309e+00 2.536093e-03 0
3.906680e+00 3.097918e-03 0
3.905913e+00 3.745017e-03 0
3.904986e+00 4.487888e-03 0
3.903876e+00 5.338631e-03 0
3.902559e+00 6.311430e-03 0
3.901003e+00 7.423088e-03 0
3.899178e+00 8.693739e-03 0
3.897045e+00 1.014780e-02 0
3.894561e+00 1.181485e-02 0
3.891676e+00 1.373062e-02 0
3.888327e+00 1.593777e-02 0
3.884440e+00 1.848514e-02 0
3.879915e+00 2.142419e-02 0
3.874618e+00 2.479760e-02 0
3.868356e+00 2.860958e-02 0
3.860844e+00 3.275550e-02 0
3.851673e+00 3.687043e-02 0
3.840376e+00 4.006232e-02 0
3.826902e+00 4.068719e-02 0
3.813269e+00 3.727816e-02 0
3.803388e+00 3.087647e-02 0
3.797068e+00 2.395604e-02 0
3.793156e+00 1.786087e-02 0
3.790719e+00 1.296938e-02 0
3.789170e+00 9.216597e-03 0
3.788172e+00 6.401213e-03 0
3.787527e+00 4.313168e-03 0
3.787115e+00 2.773911e-03 0
3.786857e+00 1.643336e-03 0
3.786695e+00 8.177171e-04 0
3.786587e+00 2.237565e-04 0
3.786487e+00 -1.946956e-04 0
3.786380e+00 -4.754964e-04 0
3.786256e+00 -6.414540e-04 0
3.786113e+00 -7.131514e-04 0
3.785950e+00 -7.085216e-04 0
3.785765e+00 -6.429630e-04 0
3.785560e+00 -5.295879e-04 0
3.785333e+00 -3.796458e-04 0
3.785087e+00 -2.036799e-04 0
3.784825e+00 -1.646785e-05 0
3.784548e+00 1.728562e-04 0
3.784252e+00 3.639590e-04 0
3.783927e+00 5.525756e-04 0
3.783570e+00 7.340314e-04 0
3.783179e+00 9.066737e-04 0
3.782752e+00 1.069970e-03 0
3.782291e+00 1.224291e-03 0
3.781795e+00 1.370281e-03 0
3.781266e+00 1.508514e-03 0
3.780705e+00 1.639440e-03 0
3.780113e+00 1.763421e-03 0
3.779493e+00 1.880770e-03 0
3.778845e+00 1.991763e-03 0
3.778172e+00 2.096652e-03 0
3.777473e+00 2.195667e-03 0
3.776752e+00 2.289024e-03 0
3.776009e+00 2.376934e-03 0
3.775245e+00 2.459618e-03 0
3.774461e+00 2.537300e-03 0
3.773659e+00 2.610209e-03 0
3.772840e+00 2.678560e-03 0
3.772004e+00 2.742553e-03 0
3.771154e+00 2.802374e-03 0
3.770289e+00 2.858203e-03 0
3.769410e+00 2.910224e-03 0
3.768519e+00 2.958625e-03 0
3.767617e+00 3.003592e-03 0
3.766703e+00 3.045297e-03 0
3.765779e+00 3.083902e-03 0
3.764846e+00 3.119551e-03 0
3.763904e+00 3.152386e-03 0
3.762954e+00 3.182546e-03 0
3.761996e+00 3.210173e-03 0
3.761031e+00 3.235401e-03 0
3.760060e+00 3.258357e-03 0
3.759083e+00 3.279156e-03 0
3.758100e+00 3.297904e-03 0
3.757113e+00 3.314703e-03 0
3.756121e+00 3.329650e-03 0
3.755125e+00 3.342840e-03 0
3.754125e+00 3.354367e-03 0
3.753121e+00 3.364319e-03 0
3.752115e+00 3.372776e-03 0
3.751106e+00 3.379816e-03 0
3.750095e+00 3.385510e-03 0
3.749082e+00 3.389924e-03 0
3.748067e+00 3.393119e-03 0
3.747051e+00 3.395158e-03 0
3.746034e+00 3.396100e-03 0
3.745015e+00 3.396005e-03 0
3.743996e+00 3.394928e-03 0
3.742977e+00 3.392918e-03 0
3.741957e+00 3.390018e-03 0
3.740938e+00 3.386267e-03 0
3.739918e+00 3.381701e-03 0
3.738899e+00 3.376358e-03 0
3.737881e+00 3.370274e-03 0
3.736863e+00 3.363484e-03 0
3.735846e+00 3.356017e-03 0
3.734830e+00 3.347900e-03 0
3.733815e+00 3.339154e-03 0
3.732802e+00 3.329802e-03 0
3.731790e+00 3.319864e-03 0
3.730780e+00 3.309359e-03 0
3.729772e+00 3.298305e-03 0
3.728766e+00 3.286717e-03 0
3.727761e+00 3.274610e-03 0
3.726759e+00 3.261996e-03 0
3.725759e+00 3.248885e-03 0
3.724762e+00 3.235289e-03 0
3.723767e+00 3.221216e-03 0
3.722775e+00 3.206673e-03 0
3.721786e+00 3.191666e-03 0
3.720799e+00 3.176202e-03 0
3.719816e+00 3.160283e-03 0
3.718835e+00 3.143914e-03 0
3.717858e+00 3.127097e-03 0
3.716885e+00 3.109833e-03 0
3.715914e+00 3.092124e-03 0
3.714948e+00 3.073969e-03 0
3.713985e+00 3.055366e-03 0
3.713026e+00 3.036315e-03 0
3.712071e+00 3.016811e-03 0
3.711120e+00 2.996851e-03 0
3.710173e+00 2.976428e-03 0
3.709230e+00 2.955533e-03 0
3.708292e+00 2.934152e-03 0
3.707359e+00 2.912267e-03 0
3.706430e+00 2.889850e-03 0
3.705505e+00 2.866861e-03 0
3.704586e+00 2.843242e-03 0
3.703672e+00 2.818907e-03 0
3.702763e+00 2.793728e-03 0
3.701859e+00 2.767519e-03 0
3.700961e+00 2.740001e-03 0
3.700069e+00 2.710755e-03 0
3.699182e+00 2.679148e-03 0
3.698302e+00 2.644215e-03 0
3.697427e+00 2.604493e-03 0
3.696559e+00 2.557824e-03 0
3.695694e+00 2.501436e-03 0
3.694830e+00 2.432451e-03 0
3.693957e+00 2.368733e-03 0
3.693957e+00 2.343002e-03 0
4.320620e+00 -9.980196e-05 0
4.320620e+00 -9.180786e-05 0
4.320649e+00 -6.106424e-05 0
4.320673e+00 -4.440023e-07 0
4.320688e+00 9.176204e-05 0
4.320690e+00 2.182580e-04 0
4.320675e+00 3.822239e-04 0
4.320638e+00 5.877088e-04 0
4.320573e+00 8.395396e-04 0
4.320475e+00 1.143302e-03 0
4.320335e+00 1.505333e-03 0
4.320145e+00 1.932701e-03 0
4.319896e+00 2.433268e-03 0
4.319577e+00 3.015751e-03 0
4.319177e+00 3.689839e-03 0
4.318681e+00 4.466406e-03 0
4.318077e+00 5.357758e-03 0
4.317348e+00 6.378022e-03 0
4.316477e+00 7.543654e-03 0
4.315447e+00 8.874130e-03 0
4.314236e+00 1.039289e-02 0
4.312822e+00 1.212845e-02 0
4.311179e+00 1.411597e-02 0
4.309279e+00 1.639926e-02 0
4.307083e+00 1.903324e-02 0
4.304545e+00 2.208721e-02 0
4.301596e+00 2.564863e-02 0
4.298122e+00 2.982583e-02 0
4.293925e+00 3.474218e-02 0
4.288617e+00 4.049256e-02 0
4.281423e+00 4.695925e-02 0
4.270837e+00 5.319428e-02 0
4.254528e+00 5.578826e-02 0
4.235512e+00 5.002982e-02 0
4.226349e+00 3.867792e-02 0
4.222891e+00 2.813083e-02 0
4.221890e+00 1.999119e-02 0
4.221815e+00 1.405102e-02 0
4.222039e+00 9.771119e-03 0
4.222329e+00 6.684919e-03 0
4.222604e+00 4.452405e-03 0
4.222840e+00 2.835354e-03 0
4.223030e+00 1.667368e-03 0
4.223172e+00 8.320069e-04 0
4.223264e+00 2.476652e-04 0
4.223308e+00 -1.465323e-04 0
4.223302e+00 -3.948477e-04 0
4.223248e+00 -5.272863e-04 0
4.223152e+00 -5.671454e-04 0
4.223019e+00 -5.332680e-04 0
4.222853e+00 -4.412047e-04 0
4.222659e+00 -3.036912e-04 0
4.222441e+00 -1.328803e-04 0
4.222204e+00 5.856154e-05 0
4.221947e+00 2.638235e-04 0
4.221668e+00 4.786282e-04 0
4.221365e+00 6.967384e-04 0
4.221038e+00 9.131957e-04 0
4.220686e+00 1.124206e-03 0
4.220309e+00 1.327562e-03 0
4.219906e+00 1.522157e-03 0
4.219477e+00 1.707650e-03 0
4.219022e+00 1.884105e-03 0
4.218542e+00 2.051750e-03 0
4.218038e+00 2.210862e-03 0
4.217510e+00 2.361737e-03 0
4.216961e+00 2.504671e-03 0
4.216391e+00 2.639952e-03 0
4.215801e+00 2.767856e-03 0
4.215192e+00 2.888646e-03 0
4.214566e+00 3.002577e-03 0
4.213922e+00 3.109912e-03 0