<?xml version="1.0"?>
<VTKFile type="StructuredGrid">
<StructuredGrid WholeExtent="0 158 0 30 0 0 ">
<Piece Extent="0 158 0 30 0 0 ">
<Points>
<DataArray type="Float64" format="ascii" NumberOfComponents="3">
0.000000e+00 0.000000e+00 0.000000e+00
3.164557e-02 0.000000e+00 0.000000e+00
6.329114e-02 0.000000e+00 0.000000e+00
9.493671e-02 0.000000e+00 0.000000e+00
1.265823e-01 0.000000e+00 0.000000e+00
1.582278e-01 0.000000e+00 0.000000e+00
1.898734e-01 0.000000e+00 0.000000e+00
2.215190e-01 0.000000e+00 0.000000e+00
2.531646e-01 0.000000e+00 0.000000e+00
2.848101e-01 0.000000e+00 0.000000e+00
3.164557e-01 0.000000e+00 0.000000e+00
3.481013e-01 0.000000e+00 0.000000e+00
3.797468e-01 0.000000e+00 0.000000e+00
4.113924e-01 0.000000e+00 0.000000e+00
4.430380e-01 0.000000e+00 0.000000e+00
4.746835e-01 0.000000e+00 0.000000e+00
5.063291e-01 0.000000e+00 0.000000e+00
5.379747e-01 0.000000e+00 0.000000e+00
5.696203e-01 0.000000e+00 0.000000e+00
6.012658e-01 0.000000e+00 0.000000e+00
6.329114e-01 0.000000e+00 0.000000e+00
6.645570e-01 0.000000e+00 0.000000e+00
6.962025e-01 0.000000e+00 0.000000e+00
7.278481e-01 0.000000e+00 0.000000e+00
7.594937e-01 0.000000e+00 0.000000e+00
7.911392e-01 0.000000e+00 0.000000e+00
8.227848e-01 0.000000e+00 0.000000e+00
8.544304e-01 0.000000e+00 0.000000e+00
8.860759e-01 0.000000e+00 0.000000e+00
9.177215e-01 0.000000e+00 0.000000e+00
9.493671e-01 0.000000e+00 0.000000e+00
9.810127e-01 0.000000e+00 0.000000e+00
1.012658e+00 0.000000e+00 0.000000e+00
1.044304e+00 0.000000e+00 0.000000e+00
1.075949e+00 0.000000e+00 0.000000e+00
1.107595e+00 0.000000e+00 0.000000e+00
1.139241e+00 0.000000e+00 0.000000e+00
1.170886e+00 0.000000e+00 0.000000e+00
1.202532e+00 0.000000e+00 0.000000e+00
1.234177e+00 0.000000e+00 0.000000e+00
1.265823e+00 0.000000e+00 0.000000e+00
1.297468e+00 0.000000e+00 0.000000e+00
1.329114e+00 0.000000e+00 0.000000e+00
1.360759e+00 0.000000e+00 0.000000e+00
1.392405e+00 0.000000e+00 0.000000e+00
1.424051e+00 0.000000e+00 0.000000e+00
1.455696e+00 0.000000e+00 0.000000e+00
1.487342e+00 0.000000e+00 0.000000e+00
1.518987e+00 0.000000e+00 0.000000e+00
1.550633e+00 0.000000e+00 0.000000e+00
1.582278e+00 0.000000e+00 0.000000e+00
1.613924e+00 0.000000e+00 0.000000e+00
1.645570e+00 0.000000e+00 0.000000e+00
1.677215e+00 0.000000e+00 0.000000e+00
1.708861e+00 0.000000e+00 0.000000e+00
1.740506e+00 0.000000e+00 0.000000e+00
1.772152e+00 0.000000e+00 0.000000e+00
1.803797e+00 0.000000e+00 0.000000e+00
1.835443e+00 0.000000e+00 0.000000e+00
1.867089e+00 0.000000e+00 0.000000e+00
1.898734e+00 0.000000e+00 0.000000e+00
1.930380e+00 0.000000e+00 0.000000e+00
1.962025e+00 0.000000e+00 0.000000e+00
1.993671e+00 0.000000e+00 0.000000e+00
2.025316e+00 0.000000e+00 0.000000e+00
2.056962e+00 0.000000e+00 0.000000e+00
2.088608e+00 0.000000e+00 0.000000e+00
2.120253e+00 0.000000e+00 0.000000e+00
2.151899e+00 0.000000e+00 0.000000e+00
2.183544e+00 0.000000e+00 0.000000e+00
2.215190e+00 0.000000e+00 0.000000e+00
2.246835e+00 0.000000e+00 0.000000e+00
2.278481e+00 0.000000e+00 0.000000e+00
2.310127e+00 0.000000e+00 0.000000e+00
2.341772e+00 0.000000e+00 0.000000e+00
2.373418e+00 0.000000e+00 0.000000e+00
2.405063e+00 0.000000e+00 0.000000e+00
2.436709e+00 0.000000e+00 0.000000e+00
2.468354e+00 0.000000e+00 0.000000e+00
2.500000e+00 0.000000e+00 0.000000e+00
2.531646e+00 0.000000e+00 0.000000e+00
2.563291e+00 0.000000e+00 0.000000e+00
2.594937e+00 0.000000e+00 0.000000e+00
2.626582e+00 0.000000e+00 0.000000e+00
2.658228e+00 0.000000e+00 0.000000e+00
2.689873e+00 0.000000e+00 0.000000e+00
2.721519e+00 0.000000e+00 0.000000e+00
2.753165e+00 0.000000e+00 0.000000e+00
2.784810e+00 0.000000e+00 0.000000e+00
2.816456e+00 0.000000e+00 0.000000e+00
2.848101e+00 0.000000e+00 0.000000e+00
2.879747e+00 0.000000e+00 0.000000e+00
2.911392e+00 0.000000e+00 0.000000e+00
2.943038e+00 0.000000e+00 0.000000e+00
2.974684e+00 0.000000e+00 0.000000e+00
3.006329e+00 0.000000e+00 0.000000e+00
3.037975e+00 0.000000e+00 0.000000e+00
3.069620e+00 0.000000e+00 0.000000e+00
3.101266e+00 0.000000e+00 0.000000e+00
3.132911e+00 0.000000e+00 0.000000e+00
3.164557e+00 0.000000e+00 0.000000e+00
3.196203e+00 0.000000e+00 0.000000e+00
3.227848e+00 0.000000e+00 0.000000e+00
3.259494e+00 0.000000e+00 0.000000e+00
3.291139e+00 0.000000e+00 0.000000e+00
3.322785e+00 0.000000e+00 0.000000e+00
3.354430e+00 0.000000e+00 0.000000e+00
3.386076e+00 0.000000e+00 0.000000e+00
3.417722e+00 0.000000e+00 0.000000e+00
3.449367e+00 0.000000e+00 0.000000e+00
3.481013e+00 0.000000e+00 0.000000e+00
3.512658e+00 0.000000e+00 0.000000e+00
3.544304e+00 0.000000e+00 0.000000e+00
3.575949e+00 0.000000e+00 0.000000e+00
3.607595e+00 0.000000e+00 0.000000e+00
3.639241e+00 0.000000e+00 0.000000e+00
3.670886e+00 0.000000e+00 0.000000e+00
3.702532e+00 0.000000e+00 0.000000e+00
3.734177e+00 0.000000e+00 0.000000e+00
3.765823e+00 0.000000e+00 0.000000e+00
3.797468e+00 0.000000e+00 0.000000e+00
3.829114e+00 0.000000e+00 0.000000e+00
3.860759e+00 0.000000e+00 0.000000e+00
3.892405e+00 0.000000e+00 0.000000e+00
3.924051e+00 0.000000e+00 0.000000e+00
3.955696e+00 0.000000e+00 0.000000e+00
3.987342e+00 0.000000e+00 0.000000e+00
4.018987e+00 0.000000e+00 0.000000e+00
4.050633e+00 0.000000e+00 0.000000e+00
4.082278e+00 0.000000e+00 0.000000e+00
4.113924e+00 0.000000e+00 0.000000e+00
4.145570e+00 0.000000e+00 0.000000e+00
4.177215e+00 0.000000e+00 0.000000e+00
4.208861e+00 0.000000e+00 0.000000e+00
4.240506e+00 0.000000e+00 0.000000e+00
4.272152e+00 0.000000e+00 0.000000e+00
4.303797e+00 0.000000e+00 0.000000e+00
4.335443e+00 0.000000e+00 0.000000e+00
4.367089e+00 0.000000e+00 0.000000e+00
4.398734e+00 0.000000e+00 0.000000e+00
4.430380e+00 0.000000e+00 0.000000e+00
4.462025e+00 0.000000e+00 0.000000e+00
4.493671e+00 0.000000e+00 0.000000e+00
4.525316e+00 0.000000e+00 0.000000e+00
4.556962e+00 0.000000e+00 0.000000e+00
4.588608e+00 0.000000e+00 0.000000e+00
4.620253e+00 0.000000e+00 0.000000e+00
4.651899e+00 0.000000e+00 0.000000e+00
4.683544e+00 0.000000e+00 0.000000e+00
4.715190e+00 0.000000e+00 0.000000e+00
4.746835e+00 0.000000e+00 0.000000e+00
4.778481e+00 0.000000e+00 0.000000e+00
4.810127e+00 0.000000e+00 0.000000e+00
4.841772e+00 0.000000e+00 0.000000e+00
4.873418e+00 0.000000e+00 0.000000e+00
4.905063e+00 0.000000e+00 0.000000e+00
4.936709e+00 0.000000e+00 0.000000e+00
4.968354e+00 0.000000e+00 0.000000e+00
5.000000e+00 0.000000e+00 0.000000e+00
0.000000e+00 3.333333e-02 0.000000e+00
3.164557e-02 3.333333e-02 0.000000e+00
6.329114e-02 3.333333e-02 0.000000e+00
9.493671e-02 3.333333e-02 0.000000e+00
1.265823e-01 3.333333e-02 0.000000e+00
1.582278e-01 3.333333e-02 0.000000e+00
1.898734e-01 3.333333e-02 0.000000e+00
2.215190e-01 3.333333e-02 0.000000e+00
2.531646e-01 3.333333e-02 0.000000e+00
2.848101e-01 3.333333e-02 0.000000e+00
3.164557e-01 3.333333e-02 0.000000e+00
3.481013e-01 3.333333e-02 0.000000e+00
3.797468e-01 3.333333e-02 0.000000e+00
4.113924e-01 3.333333e-02 0.000000e+00
4.430380e-01 3.333333e-02 0.000000e+00
4.746835e-01 3.333333e-02 0.000000e+00
5.063291e-01 3.333333e-02 0.000000e+00
5.379747e-01 3.333333e-02 0.000000e+00
5.696203e-01 3.333333e-02 0.000000e+00
6.012658e-01 3.333333e-02 0.000000e+00
6.329114e-01 3.333333e-02 0.000000e+00
6.645570e-01 3.333333e-02 0.000000e+00
6.962025e-01 3.333333e-02 0.000000e+00
7.278481e-01 3.333333e-02 0.000000e+00
7.594937e-01 3.333333e-02 0.000000e+00
7.911392e-01 3.333333e-02 0.000000e+00
8.227848e-01 3.333333e-02 0.000000e+00
8.544304e-01 3.333333e-02 0.000000e+00
8.860759e-01 3.333333e-02 0.000000e+00
9.177215e-01 3.333333e-02 0.000000e+00
9.493671e-01 3.333333e-02 0.000000e+00
9.810127e-01 3.333333e-02 0.000000e+00
1.012658e+00 3.333333e-02 0.000000e+00
1.044304e+00 3.333333e-02 0.000000e+00
1.075949e+00 3.333333e-02 0.000000e+00
1.107595e+00 3.333333e-02 0.000000e+00
1.139241e+00 3.333333e-02 0.000000e+00
1.170886e+00 3.333333e-02 0.000000e+00
1.202532e+00 3.333333e-02 0.000000e+00
1.234177e+00 3.333333e-02 0.000000e+00
1.265823e+00 3.333333e-02 0.000000e+00
1.297468e+00 3.333333e-02 0.000000e+00
1.329114e+00 3.333333e-02 0.000000e+00
1.360759e+00 3.333333e-02 0.000000e+00
1.392405e+00 3.333333e-02 0.000000e+00
1.424051e+00 3.333333e-02 0.000000e+00
1.455696e+00 3.333333e-02 0.000000e+00
1.487342e+00 3.333333e-02 0.000000e+00
1.518987e+00 3.333333e-02 0.000000e+00
1.550633e+00 3.333333e-02 0.000000e+00
1.582278e+00 3.333333e-02 0.000000e+00
1.613924e+00 3.333333e-02 0.000000e+00
1.645570e+00 3.333333e-02 0.000000e+00
1.677215e+00 3.333333e-02 0.000000e+00
1.708861e+00 3.333333e-02 0.000000e+00
1.740506e+00 3.333333e-02 0.000000e+00
1.772152e+00 3.333333e-02 0.000000e+00
1.803797e+00 3.333333e-02 0.000000e+00
1.835443e+00 3.333333e-02 0.000000e+00
1.867089e+00 3.333333e-02 0.000000e+00
1.898734e+00 3.333333e-02 0.000000e+00
1.930380e+00 3.333333e-02 0.000000e+00
1.962025e+00 3.333333e-02 0.000000e+00
1.993671e+00 3.333333e-02 0.000000e+00
2.025316e+00 3.333333e-02 0.000000e+00
2.056962e+00 3.333333e-02 0.000000e+00
2.088608e+00 3.333333e-02 0.000000e+00
2.120253e+00 3.333333e-02 0.000000e+00
2.151899e+00 3.333333e-02 0.000000e+00
2.183544e+00 3.333333e-02 0.000000e+00
2.215190e+00 3.333333e-02 0.000000e+00
2.246835e+00 3.333333e-02 0.000000e+00
2.278481e+00 3.333333e-02 0.000000e+00
2.310127e+00 3.333333e-02 0.000000e+00
2.341772e+00 3.333333e-02 0.000000e+00
2.373418e+00 3.333333e-02 0.000000e+00
2.405063e+00 3.333333e-02 0.000000e+00
2.436709e+00 3.333333e-02 0.000000e+00
2.468354e+00 3.333333e-02 0.000000e+00
2.500000e+00 3.333333e-02 0.000000e+00
2.531646e+00 3.333333e-02 0.000000e+00
2.563291e+00 3.333333e-02 0.000000e+00
2.594937e+00 3.333333e-02 0.000000e+00
2.626582e+00 3.333333e-02 0.000000e+00
2.658228e+00 3.333333e-02 0.000000e+00
2.689873e+00 3.333333e-02 0.000000e+00
2.721519e+00 3.333333e-02 0.000000e+00
2.753165e+00 3.333333e-02 0.000000e+00
2.784810e+00 3.333333e-02 0.000000e+00
2.816456e+00 3.333333e-02 0.000000e+00
2.848101e+00 3.333333e-02 0.000000e+00
2.879747e+00 3.333333e-02 0.000000e+00
[...]
<PointData>
<DataArray Name="Velocity" type="Float64" format="ascii" NumberOfComponents="3">
0.000000e+00 0.000000e+00 0
0.000000e+00 0.000000e+00 0
0.000000e+00 0.000000e+00 0
0.000000e+00 0.000000e+00 0
0.000000e+00 0.000000e+00 0
0.000000e+00 0.000000e+00 0
0.000000e+00 0.000000e+00 0
0.000000e+00 0.000000e+00 0
0.000000e+00 0.000000e+00 0
0.000000e+00 0.000000e+00 0
0.000000e+00 0.000000e+00 0
0.000000e+00 0.000000e+00 0
0.000000e+00 0.000000e+00 0
0.000000e+00 0.000000e+00 0
0.000000e+00 0.000000e+00 0
0.000000e+00 0.000000e+00 0
0.000000e+00 0.000000e+00 0
0.000000e+00 0.000000e+00 0
0.000000e+00 0.000000e+00 0
8.548898e-19 0.000000e+00 0
0.000000e+00 0.000000e+00 0
0.000000e+00 0.000000e+00 0
0.000000e+00 0.000000e+00 0
1.348427e-18 0.000000e+00 0
0.000000e+00 0.000000e+00 0
0.000000e+00 0.000000e+00 0
0.000000e+00 0.000000e+00 0
1.020127e-19 0.000000e+00 0
0.000000e+00 0.000000e+00 0
0.000000e+00 0.000000e+00 0
0.000000e+00 0.000000e+00 0
4.300304e-18 0.000000e+00 0
0.000000e+00 0.000000e+00 0
0.000000e+00 0.000000e+00 0
0.000000e+00 0.000000e+00 0
0.000000e+00 0.000000e+00 0
0.000000e+00 0.000000e+00 0
0.000000e+00 0.000000e+00 0
4.569959e-18 0.000000e+00 0
0.000000e+00 0.000000e+00 0
0.000000e+00 0.000000e+00 0
0.000000e+00 0.000000e+00 0
0.000000e+00 0.000000e+00 0
0.000000e+00 0.000000e+00 0
0.000000e+00 0.000000e+00 0
0.000000e+00 0.000000e+00 0
-2.510283e-19 0.000000e+00 0
0.000000e+00 0.000000e+00 0
0.000000e+00 0.000000e+00 0
0.000000e+00 0.000000e+00 0
0.000000e+00 0.000000e+00 0
0.000000e+00 0.000000e+00 0
0.000000e+00 0.000000e+00 0
0.000000e+00 0.000000e+00 0
-1.771878e-18 0.000000e+00 0
0.000000e+00 0.000000e+00 0
0.000000e+00 0.000000e+00 0
0.000000e+00 0.000000e+00 0
0.000000e+00 0.000000e+00 0
0.000000e+00 0.000000e+00 0
0.000000e+00 0.000000e+00 0
0.000000e+00 0.000000e+00 0
9.164315e-18 0.000000e+00 0
0.000000e+00 0.000000e+00 0
0.000000e+00 0.000000e+00 0
0.000000e+00 0.000000e+00 0
0.000000e+00 0.000000e+00 0
0.000000e+00 0.000000e+00 0
0.000000e+00 0.000000e+00 0
0.000000e+00 0.000000e+00 0
0.000000e+00 0.000000e+00 0
0.000000e+00 0.000000e+00 0
0.000000e+00 0.000000e+00 0
0.000000e+00 0.000000e+00 0
0.000000e+00 0.000000e+00 0
0.000000e+00 0.000000e+00 0
0.000000e+00 0.000000e+00 0
0.000000e+00 0.000000e+00 0
0.000000e+00 0.000000e+00 0
0.000000e+00 0.000000e+00 0
0.000000e+00 0.000000e+00 0
0.000000e+00 0.000000e+00 0
0.000000e+00 0.000000e+00 0
0.000000e+00 0.000000e+00 0
0.000000e+00 0.000000e+00 0
0.000000e+00 0.000000e+00 0
0.000000e+00 0.000000e+00 0
0.000000e+00 0.000000e+00 0
0.000000e+00 0.000000e+00 0
0.000000e+00 0.000000e+00 0
0.000000e+00 0.000000e+00 0
0.000000e+00 0.000000e+00 0
0.000000e+00 0.000000e+00 0
0.000000e+00 0.000000e+00 0
0.000000e+00 0.000000e+00 0
0.000000e+00 0.000000e+00 0
0.000000e+00 0.000000e+00 0
0.000000e+00 0.000000e+00 0
0.000000e+00 0.000000e+00 0
0.000000e+00 0.000000e+00 0
0.000000e+00 0.000000e+00 0
0.000000e+00 0.000000e+00 0
0.000000e+00 0.000000e+00 0
0.000000e+00 0.000000e+00 0
0.000000e+00 0.000000e+00 0
0.000000e+00 0.000000e+00 0
0.000000e+00 0.000000e+00 0
0.000000e+00 0.000000e+00 0
0.000000e+00 0.000000e+00 0
0.000000e+00 0.000000e+00 0
0.000000e+00 0.000000e+00 0
0.000000e+00 0.000000e+00 0
0.000000e+00 0.000000e+00 0
0.000000e+00 0.000000e+00 0
0.000000e+00 0.000000e+00 0
0.000000e+00 0.000000e+00 0
0.000000e+00 0.000000e+00 0
0.000000e+00 0.000000e+00 0
0.000000e+00 0.000000e+00 0
0.000000e+00 0.000000e+00 0
0.000000e+00 0.000000e+00 0
0.000000e+00 0.000000e+00 0
0.000000e+00 0.000000e+00 0
0.000000e+00 0.000000e+00 0
0.000000e+00 0.000000e+00 0
0.000000e+00 0.000000e+00 0
0.000000e+00 0.000000e+00 0
0.000000e+00 0.000000e+00 0
0.000000e+00 0.000000e+00 0
0.000000e+00 0.000000e+00 0
0.000000e+00 0.000000e+00 0
0.000000e+00 0.000000e+00 0
0.000000e+00 0.000000e+00 0
0.000000e+00 0.000000e+00 0
0.000000e+00 0.000000e+00 0
0.000000e+00 0.000000e+00 0
0.000000e+00 0.000000e+00 0
0.000000e+00 0.000000e+00 0
0.000000e+00 0.000000e+00 0
0.000000e+00 0.000000e+00 0
0.000000e+00 0.000000e+00 0
0.000000e+00 0.000000e+00 0
0.000000e+00 0.000000e+00 0
0.000000e+00 0.000000e+00 0
0.000000e+00 0.000000e+00 0
0.000000e+00 0.000000e+00 0
0.000000e+00 0.000000e+00 0
0.000000e+00 0.000000e+00 0
0.000000e+00 0.000000e+00 0
0.000000e+00 0.000000e+00 0
0.000000e+00 0.000000e+00 0
0.000000e+00 0.000000e+00 0
0.000000e+00 0.000000e+00 0
0.000000e+00 0.000000e+00 0
0.000000e+00 0.000000e+00 0
0.000000e+00 0.000000e+00 0
0.000000e+00 0.000000e+00 0
0.000000e+00 0.000000e+00 0
0.000000e+00 0.000000e+00 0
3.654380e-01 9.659002e-05 0
3.654380e-01 1.207484e-04 0
3.653149e-01 1.857824e-04 0
3.651153e-01 2.891411e-04 0
3.647962e-01 4.386126e-04 0
3.643101e-01 6.398702e-04 0
3.636048e-01 8.988773e-04 0
3.626216e-01 1.222677e-03 0
3.612942e-01 1.619827e-03 0
3.595470e-01 2.100715e-03 0
3.572933e-01 2.677768e-03 0
3.544331e-01 3.365599e-03 0
3.508506e-01 4.181129e-03 0
3.464122e-01 5.143741e-03 0
3.409632e-01 6.275419e-03 0
3.343254e-01 7.600801e-03 0
3.262935e-01 9.146983e-03 0
3.166326e-01 1.094287e-02 0
3.050754e-01 1.301777e-02 0
2.913211e-01 1.539869e-02 0
2.750371e-01 1.810568e-02 0
2.558646e-01 2.114420e-02 0
2.334322e-01 2.449280e-02 0
2.073820e-01 2.808449e-02 0
1.774146e-01 3.178051e-02 0
1.433681e-01 3.534380e-02 0
1.053591e-01 3.843429e-02 0
6.409503e-02 3.805960e-02 0
2.167599e-02 2.659930e-02 0
-1.954581e-02 1.913314e-02 0
-6.107673e-02 3.957853e-02 0
-1.158749e-01 6.705700e-02 0
-1.856820e-01 7.997069e-02 0
-2.610210e-01 8.358087e-02 0
-3.354924e-01 8.109255e-02 0
-4.049443e-01 7.445025e-02 0
-4.664538e-01 6.459118e-02 0
-5.173923e-01 5.164907e-02 0
-5.547290e-01 3.529612e-02 0
-5.746554e-01 1.522890e-02 0
-5.728738e-01 -8.302721e-03 0
-5.467969e-01 -3.209273e-02 0
-5.005699e-01 -5.161788e-02 0
-4.406100e-01 -6.522285e-02 0
-3.720663e-01 -7.319381e-02 0
-2.994892e-01 -7.626524e-02 0
-2.269405e-01 -7.601430e-02 0
-1.559975e-01 -7.335964e-02 0
-8.883025e-02 -6.822767e-02 0
-2.651378e-02 -6.295606e-02 0
2.899614e-02 -5.803505e-02 0
7.778634e-02 -5.202295e-02 0
1.199916e-01 -4.511196e-02 0
1.558485e-01 -3.817990e-02 0
1.858721e-01 -3.207081e-02 0
2.106874e-01 -2.666252e-02 0
2.309600e-01 -2.194993e-02 0
2.473615e-01 -1.795540e-02 0
2.605390e-01 -1.465433e-02 0
2.710886e-01 -1.197374e-02 0
2.795349e-01 -9.813905e-03 0
2.863195e-01 -8.068062e-03 0
2.917993e-01 -6.633959e-03 0
2.962517e-01 -5.418117e-03 0
2.998840e-01 -4.334047e-03 0
3.028310e-01 -3.302943e-03 0
3.051627e-01 -2.262507e-03 0
3.068968e-01 -1.184220e-03 0
3.080142e-01 -1.102361e-04 0
3.084717e-01 9.117906e-04 0
3.082411e-01 1.881284e-03 0
3.073112e-01 2.787670e-03 0
3.056895e-01 3.601394e-03 0
3.034140e-01 4.286118e-03 0
3.005570e-01 4.804624e-03 0
2.972224e-01 5.127293e-03 0
2.935369e-01 5.240311e-03 0
2.896369e-01 5.151064e-03 0
2.856541e-01 4.888770e-03 0
2.817040e-01 4.499791e-03 0
2.778768e-01 4.038885e-03 0
2.742343e-01 3.559139e-03 0
2.708113e-01 3.103617e-03 0
2.676201e-01 2.700729e-03 0
2.646563e-01 2.363763e-03 0
2.619057e-01 2.093542e-03 0
2.593494e-01 1.882603e-03 0
2.569682e-01 1.719390e-03 0
2.547447e-01 1.591547e-03 0
2.526649e-01 1.487998e-03 0
2.507177e-01 1.399928e-03 0
2.488950e-01 1.320980e-03 0
2.471905e-01 1.246990e-03 0
2.455993e-01 1.175525e-03 0
2.441171e-01 1.105396e-03 0
2.427398e-01 1.036226e-03 0
2.414633e-01 9.681239e-04 0
2.402831e-01 9.014383e-04 0
2.391947e-01 8.366054e-04 0
2.381933e-01 7.740521e-04 0
2.372738e-01 7.141449e-04 0
2.364313e-01 6.571671e-04 0
2.356606e-01 6.033141e-04 0
2.349568e-01 5.526990e-04 0
2.343150e-01 5.053627e-04 0
2.337306e-01 4.612862e-04 0
2.331991e-01 4.204030e-04 0
2.327161e-01 3.826104e-04 0
2.322777e-01 3.477789e-04 0
2.318801e-01 3.157612e-04 0
2.315198e-01 2.863987e-04 0
2.311936e-01 2.595269e-04 0
2.308984e-01 2.349795e-04 0
2.306314e-01 2.125924e-04 0
2.303900e-01 1.922051e-04 0
2.301720e-01 1.736633e-04 0
2.299750e-01 1.568198e-04 0
2.297973e-01 1.415351e-04 0
2.296369e-01 1.276781e-04 0
2.294921e-01 1.151264e-04 0
2.293616e-01 1.037657e-04 0
2.292440e-01 9.349028e-05 0
2.291379e-01 8.420243e-05 0
2.290424e-01 7.581211e-05 0
2.289563e-01 6.823660e-05 0
2.288788e-01 6.140008e-05 0
2.288089e-01 5.523319e-05 0
2.287461e-01 4.967257e-05 0
2.286894e-01 4.466048e-05 0
2.286385e-01 4.014431e-05 0
2.285926e-01 3.607625e-05 0
2.285514e-01 3.241285e-05 0
2.285143e-01 2.911469e-05 0
2.284809e-01 2.614603e-05 0
2.284508e-01 2.347448e-05 0
2.284238e-01 2.107074e-05 0
2.283996e-01 1.890828e-05 0
2.283777e-01 1.696312e-05 0
2.283581e-01 1.521360e-05 0
2.283405e-01 1.364014e-05 0
2.283246e-01 1.222508e-05 0
2.283104e-01 1.095248e-05 0
2.282977e-01 9.807965e-06 0
2.282862e-01 8.778583e-06 0
2.282759e-01 7.852689e-06 0
2.282667e-01 7.019822e-06 0
2.282585e-01 6.270616e-06 0
2.282511e-01 5.596734e-06 0
2.282445e-01 4.990816e-06 0
2.282386e-01 4.446481e-06 0
2.282333e-01 3.958371e-06 0
2.282287e-01 3.522307e-06 0
2.282245e-01 3.135599e-06 0
2.282208e-01 2.797668e-06 0
2.282174e-01 2.511177e-06 0
2.282145e-01 2.284193e-06 0
2.282118e-01 2.121586e-06 0
2.282093e-01 2.304565e-06 0
2.282093e-01 2.552973e-06 0
4.687869e-01 1.844687e-04 0
4.687869e-01 2.219781e-04 0
4.686912e-01 3.399094e-04 0
4.685335e-01 5.463572e-04 0
4.682747e-01 8.481942e-04 0
4.678732e-01 1.254963e-03 0
4.672833e-01 1.778638e-03 0
4.664536e-01 2.433895e-03 0
4.653255e-01 3.238583e-03 0
4.638319e-01 4.214265e-03 0
4.618954e-01 5.386718e-03 0
4.594262e-01 6.786370e-03 0
4.563198e-01 8.448714e-03 0
4.524541e-01 1.041475e-02 0
4.476866e-01 1.273145e-02 0
4.418504e-01 1.545211e-02 0
4.347505e-01 1.863644e-02 0
4.261588e-01 2.234982e-02 0
4.158092e-01 2.666147e-02 0
4.033921e-01 3.164030e-02 0
3.885492e-01 3.734751e-02 0
3.708701e-01 4.382380e-02 0
3.498918e-01 5.106838e-02 0
3.251042e-01 5.900526e-02 0
2.959674e-01 6.742794e-02 0
2.619502e-01 7.589846e-02 0
2.226154e-01 8.350098e-02 0
1.777930e-01 8.814621e-02 0
1.253270e-01 8.810167e-02 0
5.859105e-02 8.716618e-02 0
-1.098289e-02 1.014667e-01 0
-7.326599e-02 1.312509e-01 0
-1.388180e-01 1.528872e-01 0
-2.053411e-01 1.578003e-01 0
-2.678973e-01 1.515992e-01 0
-3.241101e-01 1.379459e-01 0
-3.725912e-01 1.184452e-01 0
-4.117910e-01 9.298333e-02 0
-4.391231e-01 6.031711e-02 0
-4.499611e-01 1.911258e-02 0
-4.364562e-01 -2.934418e-02 0
-3.976571e-01 -7.616009e-02 0
-3.422004e-01 -1.118500e-01 0
-2.781611e-01 -1.353569e-01 0
-2.091505e-01 -1.486472e-01 0
-1.383539e-01 -1.528657e-01 0
-6.815985e-02 -1.511444e-01 0
-1.525534e-03 -1.454759e-01 0
6.035808e-02 -1.363893e-01 0
1.173455e-01 -1.241102e-01 0
1.673621e-01 -1.098625e-01 0
2.105823e-01 -9.584825e-02 0
2.473133e-01 -8.222517e-02 0
2.782381e-01 -6.939375e-02 0
3.034647e-01 -5.776321e-02 0
3.234370e-01 -4.749222e-02 0
3.387779e-01 -3.862968e-02 0
3.501598e-01 -3.115614e-02 0
3.582457e-01 -2.499207e-02 0
3.636602e-01 -2.000858e-02 0
3.669708e-01 -1.604281e-02 0
3.686718e-01 -1.291795e-02 0
3.691888e-01 -1.046139e-02 0
3.688843e-01 -8.515490e-03 0
3.680802e-01 -6.929799e-03 0
3.670202e-01 -5.559746e-03 0
3.658764e-01 -4.282123e-03 0
3.647523e-01 -3.003110e-03 0
3.636831e-01 -1.658493e-03 0
3.626151e-01 -2.385263e-04 0
3.614788e-01 1.222876e-03 0
3.602220e-01 2.688074e-03 0
3.588047e-01 4.105444e-03 0
3.571952e-01 5.406615e-03 0
3.553656e-01 6.522092e-03 0
3.532887e-01 7.394749e-03 0
3.509389e-01 7.990435e-03 0
3.482966e-01 8.303503e-03 0
3.453543e-01 8.356165e-03 0
3.421225e-01 8.192354e-03 0
3.386328e-01 7.868275e-03 0
3.349372e-01 7.442369e-03 0
3.311027e-01 6.967026e-03 0
3.272037e-01 6.483358e-03 0
3.233125e-01 6.019225e-03 0
3.194930e-01 5.589961e-03 0
3.157961e-01 5.200826e-03 0
3.122585e-01 4.850202e-03 0
3.089040e-01 4.532698e-03 0
3.057458e-01 4.241647e-03 0
3.027889e-01 3.970780e-03 0
3.000331e-01 3.715106e-03 0
2.974741e-01 3.471186e-03 0
2.951054e-01 3.237007e-03 0
2.929187e-01 3.011669e-03 0
2.909050e-01 2.795029e-03 0
2.890546e-01 2.587374e-03 0
2.873577e-01 2.389172e-03 0
2.858043e-01 2.200901e-03 0
2.843845e-01 2.022947e-03 0
2.830889e-01 1.855551e-03 0
2.819081e-01 1.698796e-03 0
2.808331e-01 1.552614e-03 0
2.798557e-01 1.416803e-03 0
2.789677e-01 1.291053e-03 0
2.781618e-01 1.174971e-03 0
2.774309e-01 1.068099e-03 0
2.767684e-01 9.699443e-04 0
2.761685e-01 8.799861e-04 0
2.756254e-01 7.976964e-04 0
2.751341e-01 7.225488e-04 0
2.746898e-01 6.540266e-04 0
2.742883e-01 5.916301e-04 0
2.739255e-01 5.348802e-04 0
2.735978e-01 4.833219e-04 0
2.733019e-01 4.365258e-04 0
2.730348e-01 3.940893e-04 0
2.727938e-01 3.556367e-04 0
2.725764e-01 3.208190e-04 0
2.723803e-01 2.893129e-04 0
2.722035e-01 2.608203e-04 0
2.720440e-01 2.350665e-04 0
2.719003e-01 2.117996e-04 0
2.717708e-01 1.907886e-04 0
2.716540e-01 1.718225e-04 0
2.715489e-01 1.547085e-04 0
2.714541e-01 1.392707e-04 0
2.713687e-01 1.253493e-04 0
2.712919e-01 1.127987e-04 0
2.712226e-01 1.014867e-04 0
2.711603e-01 9.129336e-05 0
2.711042e-01 8.210988e-05 0
2.710536e-01 7.383769e-05 0
2.710081e-01 6.638749e-05 0
2.709672e-01 5.967851e-05 0
2.709303e-01 5.363767e-05 0
2.708971e-01 4.819890e-05 0
2.708673e-01 4.330250e-05 0
2.708405e-01 3.889454e-05 0
2.708163e-01 3.492632e-05 0
2.707946e-01 3.135390e-05 0
2.707751e-01 2.813761e-05 0
2.707575e-01 2.524170e-05 0
2.707418e-01 2.263394e-05 0
2.707276e-01 2.028532e-05 0
2.707149e-01 1.816975e-05 0
2.707035e-01 1.626384e-05 0
2.706932e-01 1.454667e-05 0
2.706841e-01 1.299970e-05 0
2.706758e-01 1.160664e-05 0
2.706685e-01 1.035354e-05 0
2.706619e-01 9.228959e-06 0
2.706561e-01 8.224497e-06 0
2.706508e-01 7.335808e-06 0
2.706462e-01 6.564761e-06 0
2.706420e-01 5.924224e-06 0
2.706383e-01 5.448857e-06 0
2.706350e-01 5.305163e-06 0
2.706350e-01 5.351701e-06 0
4.998471e-01 2.546883e-04 0
4.998471e-01 3.005876e-04 0
4.997780e-01 4.526308e-04 0
4.996679e-01 7.278780e-04 0
4.994886e-01 1.134229e-03 0
4.992101e-01 1.684149e-03 0
4.987990e-01 2.394169e-03 0
4.982175e-01 3.284876e-03 0
4.974224e-01 4.381323e-03 0
4.963642e-01 5.713758e-03 0
4.949854e-01 7.318465e-03 0
4.932193e-01 9.238610e-03 0
4.909880e-01 1.152508e-02 0
4.882000e-01 1.423739e-02 0
4.847476e-01 1.744468e-02 0
4.805034e-01 2.122684e-02 0
4.753162e-01 2.567547e-02 0
4.690057e-01 3.089434e-02 0
4.613554e-01 3.699873e-02 0
4.521036e-01 4.411262e-02 0
4.409318e-01 5.236220e-02 0
4.274498e-01 6.186333e-02 0
4.111776e-01 7.269956e-02 0
3.915226e-01 8.488486e-02 0
3.677535e-01 9.830271e-02 0
3.389671e-01 1.126078e-01 0
3.040345e-01 1.270799e-01 0
2.614319e-01 1.405367e-01 0
2.086133e-01 1.521587e-01 0
1.432217e-01 1.627129e-01 0
6.745318e-02 1.784680e-01 0
-5.574480e-03 2.017100e-01 0
-7.241393e-02 2.190898e-01 0
-1.302770e-01 2.195445e-01 0
-1.778086e-01 2.061959e-01 0
-2.162669e-01 1.847278e-01 0
-2.472793e-01 1.569484e-01 0
-2.712392e-01 1.217293e-01 0
-2.865291e-01 7.550205e-02 0
-2.878878e-01 1.241980e-02 0
-2.559612e-01 -6.339625e-02 0
-2.039149e-01 -1.313754e-01 0
-1.425433e-01 -1.774870e-01 0
-7.820271e-02 -2.053687e-01 0
-1.434073e-02 -2.204572e-01 0
4.764330e-02 -2.247753e-01 0
1.074004e-01 -2.201401e-01 0
1.631146e-01 -2.087317e-01 0
2.146218e-01 -1.934384e-01 0
2.614910e-01 -1.756669e-01 0
3.046380e-01 -1.562444e-01 0
3.433383e-01 -1.362380e-01 0
3.771302e-01 -1.163758e-01 0
4.057432e-01 -9.732596e-02 0
4.289513e-01 -7.968017e-02 0
4.467515e-01 -6.385887e-02 0
4.594049e-01 -5.009773e-02 0
4.673951e-01 -3.846127e-02 0
4.713474e-01 -2.887462e-02 0
4.719379e-01 -2.116404e-02 0
4.698168e-01 -1.509254e-02 0
4.655409e-01 -1.040408e-02 0
4.596429e-01 -6.857560e-03 0
4.526380e-01 -4.250203e-03 0
4.449254e-01 -2.370384e-03 0
4.368716e-01 -9.814807e-04 0
4.288030e-01 1.265953e-04 0
4.209860e-01 1.126246e-03 0
4.136048e-01 2.141125e-03 0
4.067598e-01 3.233820e-03 0
4.004583e-01 4.402186e-03 0
3.946569e-01 5.604613e-03 0
3.893075e-01 6.789665e-03 0
3.843729e-01 7.908676e-03 0
3.798246e-01 8.919652e-03 0
3.756245e-01 9.790285e-03 0
3.717075e-01 1.049878e-02 0
3.679752e-01 1.103353e-02 0
3.643071e-01 1.139215e-02 0
3.605845e-01 1.157980e-02 0
3.567152e-01 1.160748e-02 0
3.526514e-01 1.149088e-02 0
3.483944e-01 1.124962e-02 0
3.439870e-01 1.090644e-02 0
3.394992e-01 1.048559e-02 0
3.350117e-01 1.001074e-02 0
3.306018e-01 9.502901e-03 0
3.263348e-01 8.979026e-03 0
3.222599e-01 8.451605e-03 0
3.184096e-01 7.929148e-03 0
3.148025e-01 7.417149e-03 0
3.114458e-01 6.919115e-03 0
3.083384e-01 6.437409e-03 0
3.054736e-01 5.973784e-03 0
3.028411e-01 5.529665e-03 0
3.004285e-01 5.106236e-03 0
2.982223e-01 4.704439e-03 0
2.962083e-01 4.324945e-03 0
2.943728e-01 3.968128e-03 0
2.927020e-01 3.634055e-03 0
2.911829e-01 3.322513e-03 0
2.898032e-01 3.033031e-03 0
2.885510e-01 2.764930e-03 0
2.874156e-01 2.517365e-03 0
2.863867e-01 2.289367e-03 0
2.854549e-01 2.079889e-03 0
2.846116e-01 1.887831e-03 0
2.838486e-01 1.712078e-03 0
2.831586e-01 1.551515e-03 0
2.825350e-01 1.405050e-03 0
2.819715e-01 1.271623e-03 0
2.814624e-01 1.150221e-03 0
2.810028e-01 1.039878e-03 0
2.805878e-01 9.396833e-04 0
2.802133e-01 8.487834e-04 0
2.798753e-01 7.663804e-04 0
2.795705e-01 6.917328e-04 0
2.792954e-01 6.241540e-04 0
2.790474e-01 5.630099e-04 0
2.788238e-01 5.077170e-04 0
2.786222e-01 4.577390e-04 0
2.784405e-01 4.125846e-04 0
2.782767e-01 3.718044e-04 0
2.781291e-01 3.349878e-04 0
2.779961e-01 3.017604e-04 0
2.778762e-01 2.717812e-04 0
2.777682e-01 2.447400e-04 0
2.776710e-01 2.203548e-04 0
2.775833e-01 1.983697e-04 0
2.775044e-01 1.785523e-04 0
2.774333e-01 1.606923e-04 0
2.773693e-01 1.445988e-04 0
2.773117e-01 1.300992e-04 0
2.772598e-01 1.170373e-04 0
2.772131e-01 1.052717e-04 0
2.771710e-01 9.467469e-05 0
2.771332e-01 8.513084e-05 0
2.770991e-01 7.653586e-05 0
2.770684e-01 6.879557e-05 0
2.770408e-01 6.182495e-05 0
2.770160e-01 5.554728e-05 0
2.769937e-01 4.989333e-05 0
2.769736e-01 4.480067e-05 0
2.769555e-01 4.021303e-05 0
2.769393e-01 3.607971e-05 0
2.769247e-01 3.235509e-05 0
2.769116e-01 2.899816e-05 0
2.768998e-01 2.597219e-05 0
2.768893e-01 2.324437e-05 0
2.768798e-01 2.078563e-05 0
2.768714e-01 1.857055e-05 0
2.768638e-01 1.657740e-05 0
2.768570e-01 1.478843e-05 0
2.768510e-01 1.319061e-05 0
2.768456e-01 1.177689e-05 0
2.768409e-01 1.054834e-05 0
2.768367e-01 9.516953e-06 0
2.768330e-01 8.714564e-06 0
2.768330e-01 8.376317e-06 0
5.147802e-01 3.012179e-04 0
5.147802e-01 3.531193e-04 0
5.147397e-01 5.286599e-04 0
5.146707e-01 8.511873e-04 0
5.145530e-01 1.330429e-03 0
5.143644e-01 1.981406e-03 0
5.140802e-01 2.824192e-03 0
5.136721e-01 3.883832e-03 0
5.131077e-01 5.190702e-03 0
5.123496e-01 6.781312e-03 0
5.113550e-01 8.699377e-03 0
5.100747e-01 1.099697e-02 0
5.084514e-01 1.373568e-02 0
5.064193e-01 1.698794e-02 0
5.039014e-01 2.083854e-02 0
5.008079e-01 2.538652e-02 0
4.970333e-01 3.074736e-02 0
4.924517e-01 3.705525e-02 0
4.869111e-01 4.446506e-02 0
4.802236e-01 5.315321e-02 0
4.721516e-01 6.331617e-02 0
4.623867e-01 7.516488e-02 0
4.505181e-01 8.891169e-02 0
4.359872e-01 1.047453e-01 0
4.180197e-01 1.227864e-01 0
3.955299e-01 1.430158e-01 0
3.669859e-01 1.651713e-01 0
3.302447e-01 1.886566e-01 0
2.825096e-01 2.126165e-01 0
2.213511e-01 2.358548e-01 0
1.467935e-01 2.581986e-01 0
6.689822e-02 2.785776e-01 0
-7.881857e-03 2.842405e-01 0
-6.257397e-02 2.688160e-01 0
-9.253187e-02 2.421753e-01 0
-1.094796e-01 2.111218e-01 0
-1.194913e-01 1.763493e-01 0
-1.244017e-01 1.343264e-01 0
-1.226264e-01 7.785371e-02 0
-9.298644e-02 -1.308554e-02 0
-3.809413e-02 -1.177956e-01 0
2.070691e-02 -1.956269e-01 0
7.902366e-02 -2.442669e-01 0
1.362603e-01 -2.703969e-01 0
1.900511e-01 -2.812049e-01 0
2.397034e-01 -2.810996e-01 0
2.851548e-01 -2.727741e-01 0
3.272334e-01 -2.584157e-01 0
3.663361e-01 -2.400122e-01 0
4.024882e-01 -2.189270e-01 0
4.360698e-01 -1.960749e-01 0
4.671122e-01 -1.722066e-01 0
4.954277e-01 -1.479582e-01 0
5.206322e-01 -1.239786e-01 0
5.421872e-01 -1.009585e-01 0
5.595491e-01 -7.956981e-02 0
5.723233e-01 -6.037405e-02 0
5.803735e-01 -4.373537e-02 0
5.838583e-01 -2.977702e-02 0
5.831922e-01 -1.839617e-02 0
5.789591e-01 -9.304391e-03 0
5.718087e-01 -2.201285e-03 0
5.623311e-01 3.129887e-03 0
5.509606e-01 6.987221e-03 0
5.380622e-01 9.677630e-03 0
5.240146e-01 1.142269e-02 0
5.092433e-01 1.245091e-02 0
4.942177e-01 1.300584e-02 0