<?xml version="1.0"?>
<VTKFile type="StructuredGrid">
<StructuredGrid WholeExtent="0 158 0 30 0 0 ">
<Piece Extent="0 158 0 30 0 0 ">
<Points>
<DataArray type="Float64" format="ascii" NumberOfComponents="3">
0.000000e+00 0.000000e+00 0.000000e+00
3.164557e-02 0.000000e+00 0.000000e+00
6.329114e-02 0.000000e+00 0.000000e+00
9.493671e-02 0.000000e+00 0.000000e+00
1.265823e-01 0.000000e+00 0.000000e+00
1.582278e-01 0.000000e+00 0.000000e+00
1.898734e-01 0.000000e+00 0.000000e+00
2.215190e-01 0.000000e+00 0.000000e+00
2.531646e-01 0.000000e+00 0.000000e+00
2.848101e-01 0.000000e+00 0.000000e+00
3.164557e-01 0.000000e+00 0.000000e+00
3.481013e-01 0.000000e+00 0.000000e+00
3.797468e-01 0.000000e+00 0.000000e+00
4.113924e-01 0.000000e+00 0.000000e+00
4.430380e-01 0.000000e+00 0.000000e+00
4.746835e-01 0.000000e+00 0.000000e+00
5.063291e-01 0.000000e+00 0.000000e+00
5.379747e-01 0.000000e+00 0.000000e+00
5.696203e-01 0.000000e+00 0.000000e+00
6.012658e-01 0.000000e+00 0.000000e+00
6.329114e-01 0.000000e+00 0.000000e+00
6.645570e-01 0.000000e+00 0.000000e+00
6.962025e-01 0.000000e+00 0.000000e+00
7.278481e-01 0.000000e+00 0.000000e+00
7.594937e-01 0.000000e+00 0.000000e+00
7.911392e-01 0.000000e+00 0.000000e+00
8.227848e-01 0.000000e+00 0.000000e+00
8.544304e-01 0.000000e+00 0.000000e+00
8.860759e-01 0.000000e+00 0.000000e+00
9.177215e-01 0.000000e+00 0.000000e+00
9.493671e-01 0.000000e+00 0.000000e+00
9.810127e-01 0.000000e+00 0.000000e+00
1.012658e+00 0.000000e+00 0.000000e+00
1.044304e+00 0.000000e+00 0.000000e+00
1.075949e+00 0.000000e+00 0.000000e+00
1.107595e+00 0.000000e+00 0.000000e+00
1.139241e+00 0.000000e+00 0.000000e+00
1.170886e+00 0.000000e+00 0.000000e+00
1.202532e+00 0.000000e+00 0.000000e+00
1.234177e+00 0.000000e+00 0.000000e+00
1.265823e+00 0.000000e+00 0.000000e+00
1.297468e+00 0.000000e+00 0.000000e+00
1.329114e+00 0.000000e+00 0.000000e+00
1.360759e+00 0.000000e+00 0.000000e+00
1.392405e+00 0.000000e+00 0.000000e+00
1.424051e+00 0.000000e+00 0.000000e+00
1.455696e+00 0.000000e+00 0.000000e+00
1.487342e+00 0.000000e+00 0.000000e+00
1.518987e+00 0.000000e+00 0.000000e+00
1.550633e+00 0.000000e+00 0.000000e+00
1.582278e+00 0.000000e+00 0.000000e+00
1.613924e+00 0.000000e+00 0.000000e+00
1.645570e+00 0.000000e+00 0.000000e+00
1.677215e+00 0.000000e+00 0.000000e+00
1.708861e+00 0.000000e+00 0.000000e+00
1.740506e+00 0.000000e+00 0.000000e+00
1.772152e+00 0.000000e+00 0.000000e+00
1.803797e+00 0.000000e+00 0.000000e+00
1.835443e+00 0.000000e+00 0.000000e+00
1.867089e+00 0.000000e+00 0.000000e+00
1.898734e+00 0.000000e+00 0.000000e+00
1.930380e+00 0.000000e+00 0.000000e+00
1.962025e+00 0.000000e+00 0.000000e+00
1.993671e+00 0.000000e+00 0.000000e+00
2.025316e+00 0.000000e+00 0.000000e+00
2.056962e+00 0.000000e+00 0.000000e+00
2.088608e+00 0.000000e+00 0.000000e+00
2.120253e+00 0.000000e+00 0.000000e+00
2.151899e+00 0.000000e+00 0.000000e+00
2.183544e+00 0.000000e+00 0.000000e+00
2.215190e+00 0.000000e+00 0.000000e+00
2.246835e+00 0.000000e+00 0.000000e+00
2.278481e+00 0.000000e+00 0.000000e+00
2.310127e+00 0.000000e+00 0.000000e+00
2.341772e+00 0.000000e+00 0.000000e+00
2.373418e+00 0.000000e+00 0.000000e+00
2.405063e+00 0.000000e+00 0.000000e+00
2.436709e+00 0.000000e+00 0.000000e+00
2.468354e+00 0.000000e+00 0.000000e+00
2.500000e+00 0.000000e+00 0.000000e+00
2.531646e+00 0.000000e+00 0.000000e+00
2.563291e+00 0.000000e+00 0.000000e+00
2.594937e+00 0.000000e+00 0.000000e+00
2.626582e+00 0.000000e+00 0.000000e+00
2.658228e+00 0.000000e+00 0.000000e+00
2.689873e+00 0.000000e+00 0.000000e+00
2.721519e+00 0.000000e+00 0.000000e+00
2.753165e+00 0.000000e+00 0.000000e+00
2.784810e+00 0.000000e+00 0.000000e+00
2.816456e+00 0.000000e+00 0.000000e+00
2.848101e+00 0.000000e+00 0.000000e+00
2.879747e+00 0.000000e+00 0.000000e+00
2.911392e+00 0.000000e+00 0.000000e+00
2.943038e+00 0.000000e+00 0.000000e+00
2.974684e+00 0.000000e+00 0.000000e+00
3.006329e+00 0.000000e+00 0.000000e+00
3.037975e+00 0.000000e+00 0.000000e+00
3.069620e+00 0.000000e+00 0.000000e+00
3.101266e+00 0.000000e+00 0.000000e+00
3.132911e+00 0.000000e+00 0.000000e+00
3.164557e+00 0.000000e+00 0.000000e+00
3.196203e+00 0.000000e+00 0.000000e+00
3.227848e+00 0.000000e+00 0.000000e+00
3.259494e+00 0.000000e+00 0.000000e+00
3.291139e+00 0.000000e+00 0.000000e+00
3.322785e+00 0.000000e+00 0.000000e+00
3.354430e+00 0.000000e+00 0.000000e+00
3.386076e+00 0.000000e+00 0.000000e+00
3.417722e+00 0.000000e+00 0.000000e+00
3.449367e+00 0.000000e+00 0.000000e+00
3.481013e+00 0.000000e+00 0.000000e+00
3.512658e+00 0.000000e+00 0.000000e+00
3.544304e+00 0.000000e+00 0.000000e+00
3.575949e+00 0.000000e+00 0.000000e+00
3.607595e+00 0.000000e+00 0.000000e+00
3.639241e+00 0.000000e+00 0.000000e+00
3.670886e+00 0.000000e+00 0.000000e+00
3.702532e+00 0.000000e+00 0.000000e+00
3.734177e+00 0.000000e+00 0.000000e+00
3.765823e+00 0.000000e+00 0.000000e+00
3.797468e+00 0.000000e+00 0.000000e+00
3.829114e+00 0.000000e+00 0.000000e+00
3.860759e+00 0.000000e+00 0.000000e+00
3.892405e+00 0.000000e+00 0.000000e+00
3.924051e+00 0.000000e+00 0.000000e+00
3.955696e+00 0.000000e+00 0.000000e+00
3.987342e+00 0.000000e+00 0.000000e+00
4.018987e+00 0.000000e+00 0.000000e+00
4.050633e+00 0.000000e+00 0.000000e+00
4.082278e+00 0.000000e+00 0.000000e+00
4.113924e+00 0.000000e+00 0.000000e+00
4.145570e+00 0.000000e+00 0.000000e+00
4.177215e+00 0.000000e+00 0.000000e+00
4.208861e+00 0.000000e+00 0.000000e+00
4.240506e+00 0.000000e+00 0.000000e+00
4.272152e+00 0.000000e+00 0.000000e+00
4.303797e+00 0.000000e+00 0.000000e+00
4.335443e+00 0.000000e+00 0.000000e+00
4.367089e+00 0.000000e+00 0.000000e+00
4.398734e+00 0.000000e+00 0.000000e+00
4.430380e+00 0.000000e+00 0.000000e+00
4.462025e+00 0.000000e+00 0.000000e+00
4.493671e+00 0.000000e+00 0.000000e+00
4.525316e+00 0.000000e+00 0.000000e+00
4.556962e+00 0.000000e+00 0.000000e+00
4.588608e+00 0.000000e+00 0.000000e+00
4.620253e+00 0.000000e+00 0.000000e+00
4.651899e+00 0.000000e+00 0.000000e+00
4.683544e+00 0.000000e+00 0.000000e+00
4.715190e+00 0.000000e+00 0.000000e+00
4.746835e+00 0.000000e+00 0.000000e+00
4.778481e+00 0.000000e+00 0.000000e+00
4.810127e+00 0.000000e+00 0.000000e+00
4.841772e+00 0.000000e+00 0.000000e+00
4.873418e+00 0.000000e+00 0.000000e+00
4.905063e+00 0.000000e+00 0.000000e+00
4.936709e+00 0.000000e+00 0.000000e+00
4.968354e+00 0.000000e+00 0.000000e+00
5.000000e+00 0.000000e+00 0.000000e+00
0.000000e+00 3.333333e-02 0.000000e+00
3.164557e-02 3.333333e-02 0.000000e+00
6.329114e-02 3.333333e-02 0.000000e+00
9.493671e-02 3.333333e-02 0.000000e+00
1.265823e-01 3.333333e-02 0.000000e+00
1.582278e-01 3.333333e-02 0.000000e+00
1.898734e-01 3.333333e-02 0.000000e+00
2.215190e-01 3.333333e-02 0.000000e+00
2.531646e-01 3.333333e-02 0.000000e+00
2.848101e-01 3.333333e-02 0.000000e+00
3.164557e-01 3.333333e-02 0.000000e+00
3.481013e-01 3.333333e-02 0.000000e+00
3.797468e-01 3.333333e-02 0.000000e+00
4.113924e-01 3.333333e-02 0.000000e+00
4.430380e-01 3.333333e-02 0.000000e+00
4.746835e-01 3.333333e-02 0.000000e+00
5.063291e-01 3.333333e-02 0.000000e+00
5.379747e-01 3.333333e-02 0.000000e+00
5.696203e-01 3.333333e-02 0.000000e+00
6.012658e-01 3.333333e-02 0.000000e+00
6.329114e-01 3.333333e-02 0.000000e+00
6.645570e-01 3.333333e-02 0.000000e+00
6.962025e-01 3.333333e-02 0.000000e+00
7.278481e-01 3.333333e-02 0.000000e+00
7.594937e-01 3.333333e-02 0.000000e+00
7.911392e-01 3.333333e-02 0.000000e+00
8.227848e-01 3.333333e-02 0.000000e+00
8.544304e-01 3.333333e-02 0.000000e+00
8.860759e-01 3.333333e-02 0.000000e+00
9.177215e-01 3.333333e-02 0.000000e+00
9.493671e-01 3.333333e-02 0.000000e+00
9.810127e-01 3.333333e-02 0.000000e+00
1.012658e+00 3.333333e-02 0.000000e+00
1.044304e+00 3.333333e-02 0.000000e+00
1.075949e+00 3.333333e-02 0.000000e+00
1.107595e+00 3.333333e-02 0.000000e+00
1.139241e+00 3.333333e-02 0.000000e+00
1.170886e+00 3.333333e-02 0.000000e+00
1.202532e+00 3.333333e-02 0.000000e+00
1.234177e+00 3.333333e-02 0.000000e+00
1.265823e+00 3.333333e-02 0.000000e+00
1.297468e+00 3.333333e-02 0.000000e+00
1.329114e+00 3.333333e-02 0.000000e+00
1.360759e+00 3.333333e-02 0.000000e+00
1.392405e+00 3.333333e-02 0.000000e+00
1.424051e+00 3.333333e-02 0.000000e+00
1.455696e+00 3.333333e-02 0.000000e+00
1.487342e+00 3.333333e-02 0.000000e+00
1.518987e+00 3.333333e-02 0.000000e+00
1.550633e+00 3.333333e-02 0.000000e+00
1.582278e+00 3.333333e-02 0.000000e+00
1.613924e+00 3.333333e-02 0.000000e+00
1.645570e+00 3.333333e-02 0.000000e+00
1.677215e+00 3.333333e-02 0.000000e+00
1.708861e+00 3.333333e-02 0.000000e+00
1.740506e+00 3.333333e-02 0.000000e+00
1.772152e+00 3.333333e-02 0.000000e+00
1.803797e+00 3.333333e-02 0.000000e+00
1.835443e+00 3.333333e-02 0.000000e+00
1.867089e+00 3.333333e-02 0.000000e+00
1.898734e+00 3.333333e-02 0.000000e+00
1.930380e+00 3.333333e-02 0.000000e+00
1.962025e+00 3.333333e-02 0.000000e+00
1.993671e+00 3.333333e-02 0.000000e+00
2.025316e+00 3.333333e-02 0.000000e+00
2.056962e+00 3.333333e-02 0.000000e+00
2.088608e+00 3.333333e-02 0.000000e+00
2.120253e+00 3.333333e-02 0.000000e+00
2.151899e+00 3.333333e-02 0.000000e+00
2.183544e+00 3.333333e-02 0.000000e+00
2.215190e+00 3.333333e-02 0.000000e+00
2.246835e+00 3.333333e-02 0.000000e+00
2.278481e+00 3.333333e-02 0.000000e+00
2.310127e+00 3.333333e-02 0.000000e+00
2.341772e+00 3.333333e-02 0.000000e+00
2.373418e+00 3.333333e-02 0.000000e+00
2.405063e+00 3.333333e-02 0.000000e+00
2.436709e+00 3.333333e-02 0.000000e+00
2.468354e+00 3.333333e-02 0.000000e+00
2.500000e+00 3.333333e-02 0.000000e+00
2.531646e+00 3.333333e-02 0.000000e+00
2.563291e+00 3.333333e-02 0.000000e+00
2.594937e+00 3.333333e-02 0.000000e+00
2.626582e+00 3.333333e-02 0.000000e+00
2.658228e+00 3.333333e-02 0.000000e+00
2.689873e+00 3.333333e-02 0.000000e+00
2.721519e+00 3.333333e-02 0.000000e+00
2.753165e+00 3.333333e-02 0.000000e+00
2.784810e+00 3.333333e-02 0.000000e+00
2.816456e+00 3.333333e-02 0.000000e+00
2.848101e+00 3.333333e-02 0.000000e+00
2.879747e+00 3.333333e-02 0.000000e+00
[...]
<PointData>
<DataArray Name="Velocity" type="Float64" format="ascii" NumberOfComponents="3">
0.000000e+00 0.000000e+00 0
0.000000e+00 0.000000e+00 0
0.000000e+00 0.000000e+00 0
0.000000e+00 0.000000e+00 0
0.000000e+00 0.000000e+00 0
0.000000e+00 0.000000e+00 0
0.000000e+00 0.000000e+00 0
0.000000e+00 0.000000e+00 0
0.000000e+00 0.000000e+00 0
0.000000e+00 0.000000e+00 0
0.000000e+00 0.000000e+00 0
0.000000e+00 0.000000e+00 0
0.000000e+00 0.000000e+00 0
0.000000e+00 0.000000e+00 0
0.000000e+00 0.000000e+00 0
0.000000e+00 0.000000e+00 0
0.000000e+00 0.000000e+00 0
0.000000e+00 0.000000e+00 0
0.000000e+00 0.000000e+00 0
3.929197e-17 0.000000e+00 0
0.000000e+00 0.000000e+00 0
0.000000e+00 0.000000e+00 0
0.000000e+00 0.000000e+00 0
7.720128e-18 0.000000e+00 0
0.000000e+00 0.000000e+00 0
0.000000e+00 0.000000e+00 0
0.000000e+00 0.000000e+00 0
-4.965667e-17 0.000000e+00 0
0.000000e+00 0.000000e+00 0
0.000000e+00 0.000000e+00 0
0.000000e+00 0.000000e+00 0
-3.115599e-17 0.000000e+00 0
0.000000e+00 0.000000e+00 0
0.000000e+00 0.000000e+00 0
0.000000e+00 0.000000e+00 0
0.000000e+00 0.000000e+00 0
0.000000e+00 0.000000e+00 0
0.000000e+00 0.000000e+00 0
5.563030e-18 0.000000e+00 0
0.000000e+00 0.000000e+00 0
0.000000e+00 0.000000e+00 0
0.000000e+00 0.000000e+00 0
0.000000e+00 0.000000e+00 0
0.000000e+00 0.000000e+00 0
0.000000e+00 0.000000e+00 0
0.000000e+00 0.000000e+00 0
2.464908e-18 0.000000e+00 0
0.000000e+00 0.000000e+00 0
0.000000e+00 0.000000e+00 0
0.000000e+00 0.000000e+00 0
0.000000e+00 0.000000e+00 0
0.000000e+00 0.000000e+00 0
0.000000e+00 0.000000e+00 0
0.000000e+00 0.000000e+00 0
-2.299334e-17 0.000000e+00 0
0.000000e+00 0.000000e+00 0
0.000000e+00 0.000000e+00 0
0.000000e+00 0.000000e+00 0
0.000000e+00 0.000000e+00 0
0.000000e+00 0.000000e+00 0
0.000000e+00 0.000000e+00 0
0.000000e+00 0.000000e+00 0
-2.213600e-17 0.000000e+00 0
0.000000e+00 0.000000e+00 0
0.000000e+00 0.000000e+00 0
0.000000e+00 0.000000e+00 0
0.000000e+00 0.000000e+00 0
0.000000e+00 0.000000e+00 0
0.000000e+00 0.000000e+00 0
0.000000e+00 0.000000e+00 0
0.000000e+00 0.000000e+00 0
0.000000e+00 0.000000e+00 0
0.000000e+00 0.000000e+00 0
0.000000e+00 0.000000e+00 0
0.000000e+00 0.000000e+00 0
0.000000e+00 0.000000e+00 0
0.000000e+00 0.000000e+00 0
0.000000e+00 0.000000e+00 0
0.000000e+00 0.000000e+00 0
0.000000e+00 0.000000e+00 0
0.000000e+00 0.000000e+00 0
0.000000e+00 0.000000e+00 0
0.000000e+00 0.000000e+00 0
0.000000e+00 0.000000e+00 0
0.000000e+00 0.000000e+00 0
0.000000e+00 0.000000e+00 0
0.000000e+00 0.000000e+00 0
0.000000e+00 0.000000e+00 0
0.000000e+00 0.000000e+00 0
0.000000e+00 0.000000e+00 0
0.000000e+00 0.000000e+00 0
0.000000e+00 0.000000e+00 0
0.000000e+00 0.000000e+00 0
0.000000e+00 0.000000e+00 0
0.000000e+00 0.000000e+00 0
0.000000e+00 0.000000e+00 0
0.000000e+00 0.000000e+00 0
0.000000e+00 0.000000e+00 0
0.000000e+00 0.000000e+00 0
0.000000e+00 0.000000e+00 0
0.000000e+00 0.000000e+00 0
0.000000e+00 0.000000e+00 0
0.000000e+00 0.000000e+00 0
0.000000e+00 0.000000e+00 0
0.000000e+00 0.000000e+00 0
0.000000e+00 0.000000e+00 0
0.000000e+00 0.000000e+00 0
0.000000e+00 0.000000e+00 0
0.000000e+00 0.000000e+00 0
0.000000e+00 0.000000e+00 0
0.000000e+00 0.000000e+00 0
0.000000e+00 0.000000e+00 0
0.000000e+00 0.000000e+00 0
0.000000e+00 0.000000e+00 0
0.000000e+00 0.000000e+00 0
0.000000e+00 0.000000e+00 0
0.000000e+00 0.000000e+00 0
0.000000e+00 0.000000e+00 0
0.000000e+00 0.000000e+00 0
0.000000e+00 0.000000e+00 0
0.000000e+00 0.000000e+00 0
0.000000e+00 0.000000e+00 0
0.000000e+00 0.000000e+00 0
0.000000e+00 0.000000e+00 0
0.000000e+00 0.000000e+00 0
0.000000e+00 0.000000e+00 0
0.000000e+00 0.000000e+00 0
0.000000e+00 0.000000e+00 0
0.000000e+00 0.000000e+00 0
0.000000e+00 0.000000e+00 0
0.000000e+00 0.000000e+00 0
0.000000e+00 0.000000e+00 0
0.000000e+00 0.000000e+00 0
0.000000e+00 0.000000e+00 0
0.000000e+00 0.000000e+00 0
0.000000e+00 0.000000e+00 0
0.000000e+00 0.000000e+00 0
0.000000e+00 0.000000e+00 0
0.000000e+00 0.000000e+00 0
0.000000e+00 0.000000e+00 0
0.000000e+00 0.000000e+00 0
0.000000e+00 0.000000e+00 0
0.000000e+00 0.000000e+00 0
0.000000e+00 0.000000e+00 0
0.000000e+00 0.000000e+00 0
0.000000e+00 0.000000e+00 0
0.000000e+00 0.000000e+00 0
0.000000e+00 0.000000e+00 0
0.000000e+00 0.000000e+00 0
0.000000e+00 0.000000e+00 0
0.000000e+00 0.000000e+00 0
0.000000e+00 0.000000e+00 0
0.000000e+00 0.000000e+00 0
0.000000e+00 0.000000e+00 0
0.000000e+00 0.000000e+00 0
0.000000e+00 0.000000e+00 0
0.000000e+00 0.000000e+00 0
0.000000e+00 0.000000e+00 0
0.000000e+00 0.000000e+00 0
1.861848e+00 -3.361743e-05 0
1.861848e+00 -3.536644e-05 0
1.861876e+00 -2.942793e-05 0
1.861891e+00 -8.492343e-06 0
1.861882e+00 2.247916e-05 0
1.861840e+00 6.350704e-05 0
1.861753e+00 1.164251e-04 0
1.861610e+00 1.827197e-04 0
1.861396e+00 2.640246e-04 0
1.861097e+00 3.621852e-04 0
1.860696e+00 4.792840e-04 0
1.860174e+00 6.176778e-04 0
1.859509e+00 7.799544e-04 0
1.858677e+00 9.689824e-04 0
1.857652e+00 1.188032e-03 0
1.856402e+00 1.440827e-03 0
1.854894e+00 1.731693e-03 0
1.853090e+00 2.065679e-03 0
1.850945e+00 2.448645e-03 0
1.848411e+00 2.887531e-03 0
1.845429e+00 3.390583e-03 0
1.841936e+00 3.967654e-03 0
1.837855e+00 4.630563e-03 0
1.833097e+00 5.393154e-03 0
1.827560e+00 6.270970e-03 0
1.821126e+00 7.279987e-03 0
1.813659e+00 8.432883e-03 0
1.805012e+00 9.731038e-03 0
1.795042e+00 1.114893e-02 0
1.783640e+00 1.260652e-02 0
1.770804e+00 1.393068e-02 0
1.756758e+00 1.482562e-02 0
1.742111e+00 1.491570e-02 0
1.727930e+00 1.395713e-02 0
1.715394e+00 1.211294e-02 0
1.705111e+00 9.852927e-03 0
1.697120e+00 7.608590e-03 0
1.691156e+00 5.630108e-03 0
1.686845e+00 4.006631e-03 0
1.683826e+00 2.731406e-03 0
1.681789e+00 1.754587e-03 0
1.680491e+00 1.011895e-03 0
1.679747e+00 4.213619e-04 0
1.679422e+00 -1.114489e-04 0
1.679418e+00 -5.734027e-04 0
1.679660e+00 -9.123930e-04 0
1.680077e+00 -1.143054e-03 0
1.680604e+00 -1.280716e-03 0
1.681190e+00 -1.340727e-03 0
1.681790e+00 -1.337442e-03 0
1.682371e+00 -1.283698e-03 0
1.682904e+00 -1.190648e-03 0
1.683368e+00 -1.067782e-03 0
1.683747e+00 -9.230105e-04 0
1.684030e+00 -7.626563e-04 0
1.684209e+00 -5.915083e-04 0
1.684282e+00 -4.117427e-04 0
1.684259e+00 -2.339928e-04 0
1.684149e+00 -8.119556e-05 0
1.683961e+00 3.146235e-05 0
1.683699e+00 1.148103e-04 0
1.683370e+00 1.863227e-04 0
1.682979e+00 2.512404e-04 0
1.682531e+00 3.114679e-04 0
1.682029e+00 3.678508e-04 0
1.681477e+00 4.208300e-04 0
1.680876e+00 4.706661e-04 0
1.680230e+00 5.175386e-04 0
1.679542e+00 5.615977e-04 0
1.678814e+00 6.029878e-04 0
1.678048e+00 6.418502e-04 0
1.677246e+00 6.783153e-04 0
1.676411e+00 7.124968e-04 0
1.675545e+00 7.444941e-04 0
1.674650e+00 7.744004e-04 0
1.673728e+00 8.023097e-04 0
1.672779e+00 8.283193e-04 0
1.671807e+00 8.525258e-04 0
1.670812e+00 8.750205e-04 0
1.669797e+00 8.958876e-04 0
1.668762e+00 9.152056e-04 0
1.667710e+00 9.330501e-04 0
1.666640e+00 9.494954e-04 0
1.665556e+00 9.646138e-04 0
1.664457e+00 9.784746e-04 0
1.663345e+00 9.911429e-04 0
1.662221e+00 1.002680e-03 0
1.661085e+00 1.013145e-03 0
1.659940e+00 1.022594e-03 0
1.658786e+00 1.031081e-03 0
1.657624e+00 1.038657e-03 0
1.656454e+00 1.045371e-03 0
1.655277e+00 1.051267e-03 0
1.654094e+00 1.056389e-03 0
1.652906e+00 1.060777e-03 0
1.651714e+00 1.064468e-03 0
1.650517e+00 1.067502e-03 0
1.649317e+00 1.069913e-03 0
1.648115e+00 1.071735e-03 0
1.646910e+00 1.072997e-03 0
1.645703e+00 1.073728e-03 0
1.644495e+00 1.073956e-03 0
1.643286e+00 1.073709e-03 0
1.642076e+00 1.073015e-03 0
1.640867e+00 1.071897e-03 0
1.639658e+00 1.070375e-03 0
1.638450e+00 1.068466e-03 0
1.637242e+00 1.066186e-03 0
1.636037e+00 1.063553e-03 0
1.634833e+00 1.060585e-03 0
1.633631e+00 1.057300e-03 0
1.632431e+00 1.053717e-03 0
1.631234e+00 1.049850e-03 0
1.630040e+00 1.045712e-03 0
1.628849e+00 1.041313e-03 0
1.627661e+00 1.036661e-03 0
1.626478e+00 1.031762e-03 0
1.625297e+00 1.026624e-03 0
1.624121e+00 1.021257e-03 0
1.622950e+00 1.015673e-03 0
1.621783e+00 1.009881e-03 0
1.620620e+00 1.003889e-03 0
1.619463e+00 9.976984e-04 0
1.618310e+00 9.913114e-04 0
1.617163e+00 9.847305e-04 0
1.616021e+00 9.779605e-04 0
1.614885e+00 9.710074e-04 0
1.613755e+00 9.638761e-04 0
1.612630e+00 9.565686e-04 0
1.611512e+00 9.490849e-04 0
1.610400e+00 9.414243e-04 0
1.609295e+00 9.335863e-04 0
1.608197e+00 9.255715e-04 0
1.607105e+00 9.173810e-04 0
1.606020e+00 9.090155e-04 0
1.604943e+00 9.004747e-04 0
1.603873e+00 8.917573e-04 0
1.602810e+00 8.828612e-04 0
1.601756e+00 8.737829e-04 0
1.600709e+00 8.645186e-04 0
1.599670e+00 8.550636e-04 0
1.598640e+00 8.454111e-04 0
1.597618e+00 8.355525e-04 0
1.596605e+00 8.254742e-04 0
1.595601e+00 8.151571e-04 0
1.594606e+00 8.045739e-04 0
1.593620e+00 7.936839e-04 0
1.592645e+00 7.824271e-04 0
1.591679e+00 7.707149e-04 0
1.590724e+00 7.584127e-04 0
1.589781e+00 7.453125e-04 0
1.588850e+00 7.310851e-04 0
1.587932e+00 7.151759e-04 0
1.587029e+00 6.965897e-04 0
1.586145e+00 6.731647e-04 0
1.585284e+00 6.408447e-04 0
1.584454e+00 5.618792e-04 0
1.583668e+00 6.379277e-04 0
1.583668e+00 7.739232e-04 0
2.950768e+00 -6.670250e-05 0
2.950768e+00 -6.347144e-05 0
2.950793e+00 -4.560669e-05 0
2.950806e+00 -6.358049e-06 0
2.950799e+00 5.362545e-05 0
2.950763e+00 1.359167e-04 0
2.950687e+00 2.425093e-04 0
2.950560e+00 3.760647e-04 0
2.950371e+00 5.397501e-04 0
2.950105e+00 7.372220e-04 0
2.949749e+00 9.726673e-04 0
2.949285e+00 1.250767e-03 0
2.948693e+00 1.576725e-03 0
2.947952e+00 1.956405e-03 0
2.947038e+00 2.396407e-03 0
2.945924e+00 2.904247e-03 0
2.944579e+00 3.488592e-03 0
2.942969e+00 4.159454e-03 0
2.941055e+00 4.928576e-03 0
2.938793e+00 5.809872e-03 0
2.936133e+00 6.819949e-03 0
2.933017e+00 7.978826e-03 0
2.929377e+00 9.310486e-03 0
2.925134e+00 1.084322e-02 0
2.920197e+00 1.260935e-02 0
2.914455e+00 1.464285e-02 0
2.907777e+00 1.697304e-02 0
2.900011e+00 1.960978e-02 0
2.890982e+00 2.251233e-02 0
2.880505e+00 2.553118e-02 0
2.868444e+00 2.831651e-02 0
2.854839e+00 3.022365e-02 0
2.840225e+00 3.036519e-02 0
2.826038e+00 2.814066e-02 0
2.814143e+00 2.403574e-02 0
2.805022e+00 1.924837e-02 0
2.798346e+00 1.469896e-02 0
2.793576e+00 1.082352e-02 0
2.790219e+00 7.721232e-03 0
2.787891e+00 5.325711e-03 0
2.786310e+00 3.512695e-03 0
2.785268e+00 2.151239e-03 0
2.784613e+00 1.126353e-03 0
2.784209e+00 3.465410e-04 0
2.783921e+00 -2.512463e-04 0
2.783707e+00 -6.936803e-04 0
2.783540e+00 -9.940068e-04 0
2.783397e+00 -1.172405e-03 0
2.783262e+00 -1.249425e-03 0
2.783122e+00 -1.243955e-03 0
2.782968e+00 -1.172654e-03 0
2.782793e+00 -1.049913e-03 0
2.782589e+00 -8.880163e-04 0
2.782352e+00 -6.973986e-04 0
2.782081e+00 -4.868530e-04 0
2.781776e+00 -2.656554e-04 0
2.781445e+00 -5.251929e-05 0
2.781090e+00 1.398630e-04 0
2.780710e+00 3.145553e-04 0
2.780292e+00 4.750371e-04 0
2.779822e+00 6.222983e-04 0
2.779297e+00 7.575244e-04 0
2.778719e+00 8.830725e-04 0
2.778091e+00 1.000557e-03 0
2.777417e+00 1.110975e-03 0
2.776697e+00 1.214963e-03 0
2.775935e+00 1.312955e-03 0
2.775132e+00 1.405285e-03 0
2.774292e+00 1.492244e-03 0
2.773416e+00 1.574099e-03 0
2.772506e+00 1.651101e-03 0
2.771564e+00 1.723480e-03 0
2.770592e+00 1.791444e-03 0
2.769592e+00 1.855190e-03 0
2.768565e+00 1.914906e-03 0
2.767514e+00 1.970780e-03 0
2.766438e+00 2.022998e-03 0
2.765341e+00 2.071742e-03 0
2.764224e+00 2.117180e-03 0
2.763087e+00 2.159473e-03 0
2.761932e+00 2.198773e-03 0
2.760761e+00 2.235228e-03 0
2.759574e+00 2.268981e-03 0
2.758372e+00 2.300172e-03 0
2.757156e+00 2.328931e-03 0
2.755928e+00 2.355383e-03 0
2.754689e+00 2.379647e-03 0
2.753439e+00 2.401834e-03 0
2.752178e+00 2.422053e-03 0
2.750909e+00 2.440407e-03 0
2.749631e+00 2.456995e-03 0
2.748345e+00 2.471908e-03 0
2.747053e+00 2.485234e-03 0
2.745754e+00 2.497054e-03 0
2.744449e+00 2.507446e-03 0
2.743139e+00 2.516485e-03 0
2.741825e+00 2.524242e-03 0
2.740506e+00 2.530784e-03 0
2.739184e+00 2.536175e-03 0
2.737858e+00 2.540474e-03 0
2.736530e+00 2.543735e-03 0
2.735199e+00 2.546013e-03 0
2.733867e+00 2.547360e-03 0
2.732533e+00 2.547826e-03 0
2.731198e+00 2.547452e-03 0
2.729862e+00 2.546280e-03 0
2.728525e+00 2.544344e-03 0
2.727188e+00 2.541679e-03 0
2.725852e+00 2.538321e-03 0
2.724515e+00 2.534304e-03 0
2.723180e+00 2.529659e-03 0
2.721845e+00 2.524417e-03 0
2.720512e+00 2.518605e-03 0
2.719180e+00 2.512247e-03 0
2.717850e+00 2.505360e-03 0
2.716521e+00 2.497963e-03 0
2.715195e+00 2.490071e-03 0
2.713871e+00 2.481703e-03 0
2.712549e+00 2.472877e-03 0
2.711230e+00 2.463612e-03 0
2.709914e+00 2.453922e-03 0
2.708601e+00 2.443817e-03 0
2.707292e+00 2.433302e-03 0
2.705986e+00 2.422384e-03 0
2.704683e+00 2.411071e-03 0
2.703384e+00 2.399373e-03 0
2.702089e+00 2.387299e-03 0
2.700799e+00 2.374852e-03 0
2.699512e+00 2.362036e-03 0
2.698231e+00 2.348851e-03 0
2.696953e+00 2.335297e-03 0
2.695681e+00 2.321375e-03 0
2.694413e+00 2.307085e-03 0
2.693151e+00 2.292430e-03 0
2.691894e+00 2.277407e-03 0
2.690642e+00 2.262015e-03 0
2.689396e+00 2.246251e-03 0
2.688156e+00 2.230109e-03 0
2.686921e+00 2.213584e-03 0
2.685693e+00 2.196667e-03 0
2.684472e+00 2.179350e-03 0
2.683256e+00 2.161618e-03 0
2.682048e+00 2.143453e-03 0
2.680846e+00 2.124827e-03 0
2.679652e+00 2.105703e-03 0
2.678465e+00 2.086026e-03 0
2.677285e+00 2.065713e-03 0
2.676113e+00 2.044647e-03 0
2.674950e+00 2.022653e-03 0
2.673795e+00 1.999467e-03 0
2.672649e+00 1.974687e-03 0
2.671514e+00 1.947678e-03 0
2.670388e+00 1.917416e-03 0
2.669275e+00 1.882158e-03 0
2.668175e+00 1.838840e-03 0
2.667090e+00 1.781776e-03 0
2.666020e+00 1.702007e-03 0
2.664934e+00 1.683504e-03 0
2.664934e+00 1.711871e-03 0
3.554840e+00 -1.020645e-04 0
3.554840e+00 -9.560595e-05 0
3.554871e+00 -6.899143e-05 0
3.554894e+00 -1.474914e-05 0
3.554902e+00 6.828629e-05 0
3.554888e+00 1.822656e-04 0
3.554846e+00 3.300595e-04 0
3.554768e+00 5.153458e-04 0
3.554645e+00 7.425376e-04 0
3.554466e+00 1.016782e-03 0
3.554221e+00 1.343921e-03 0
3.553897e+00 1.730480e-03 0
3.553480e+00 2.183778e-03 0
3.552952e+00 2.711990e-03 0
3.552297e+00 3.324288e-03 0
3.551493e+00 4.031092e-03 0
3.550518e+00 4.844296e-03 0
3.549347e+00 5.777636e-03 0
3.547952e+00 6.847210e-03 0
3.546301e+00 8.072082e-03 0
3.544358e+00 9.475176e-03 0
3.542081e+00 1.108424e-02 0
3.539424e+00 1.293293e-02 0
3.536329e+00 1.506196e-02 0
3.532730e+00 1.751979e-02 0
3.528540e+00 2.036194e-02 0
3.523651e+00 2.364689e-02 0
3.517911e+00 2.742310e-02 0
3.511101e+00 3.169560e-02 0
3.502897e+00 3.634668e-02 0
3.492837e+00 4.096540e-02 0
3.480386e+00 4.454873e-02 0
3.465478e+00 4.525245e-02 0
3.450369e+00 4.143008e-02 0
3.439466e+00 3.425039e-02 0
3.432546e+00 2.649261e-02 0
3.428312e+00 1.966500e-02 0
3.425712e+00 1.419055e-02 0
3.424089e+00 9.994513e-03 0
3.423066e+00 6.849357e-03 0
3.422424e+00 4.517991e-03 0
3.422031e+00 2.799220e-03 0
3.421796e+00 1.536530e-03 0
3.421653e+00 6.176089e-04 0
3.421548e+00 -4.468801e-05 0
3.421444e+00 -5.110231e-04 0
3.421324e+00 -8.157257e-04 0
3.421184e+00 -9.876573e-04 0
3.421020e+00 -1.051519e-03 0
3.420831e+00 -1.028433e-03 0
3.420619e+00 -9.363942e-04 0
3.420382e+00 -7.906789e-04 0
3.420122e+00 -6.042450e-04 0
3.419838e+00 -3.882551e-04 0
3.419535e+00 -1.557999e-04 0
3.419216e+00 7.868243e-05 0
3.418878e+00 3.107942e-04 0
3.418513e+00 5.395074e-04 0
3.418112e+00 7.594114e-04 0
3.417673e+00 9.677060e-04 0
3.417194e+00 1.163663e-03 0
3.416676e+00 1.347593e-03 0
3.416118e+00 1.520498e-03 0
3.415522e+00 1.683372e-03 0
3.414889e+00 1.837006e-03 0
3.414222e+00 1.982008e-03 0
3.413521e+00 2.118856e-03 0
3.412789e+00 2.247963e-03 0
3.412027e+00 2.369703e-03 0
3.411237e+00 2.484427e-03 0
3.410421e+00 2.592462e-03 0
3.409579e+00 2.694112e-03 0
3.408714e+00 2.789661e-03 0
3.407826e+00 2.879378e-03 0
3.406918e+00 2.963530e-03 0
3.405990e+00 3.042379e-03 0
3.405043e+00 3.116181e-03 0
3.404078e+00 3.185182e-03 0
3.403098e+00 3.249615e-03 0
3.402102e+00 3.309699e-03 0
3.401091e+00 3.365648e-03 0
3.400067e+00 3.417665e-03 0
3.399031e+00 3.465948e-03 0
3.397982e+00 3.510688e-03 0
3.396923e+00 3.552066e-03 0
3.395853e+00 3.590252e-03 0
3.394774e+00 3.625410e-03 0
3.393686e+00 3.657695e-03 0
3.392590e+00 3.687256e-03 0
3.391487e+00 3.714236e-03 0
3.390376e+00 3.738769e-03 0
3.389259e+00 3.760982e-03 0
3.388136e+00 3.780995e-03 0
3.387007e+00 3.798921e-03 0
3.385873e+00 3.814869e-03 0
3.384735e+00 3.828941e-03 0
3.383593e+00 3.841236e-03 0
3.382447e+00 3.851844e-03 0
3.381298e+00 3.860853e-03 0
3.380145e+00 3.868344e-03 0
3.378990e+00 3.874395e-03 0
3.377833e+00 3.879081e-03 0
3.376674e+00 3.882471e-03 0
3.375513e+00 3.884632e-03 0
3.374351e+00 3.885621e-03 0
3.373187e+00 3.885493e-03 0
3.372022e+00 3.884300e-03 0
3.370857e+00 3.882093e-03 0
3.369692e+00 3.878919e-03 0
3.368526e+00 3.874825e-03 0
3.367360e+00 3.869854e-03 0
3.366194e+00 3.864044e-03 0
3.365029e+00 3.857434e-03 0
3.363865e+00 3.850052e-03 0
3.362701e+00 3.841926e-03 0
3.361538e+00 3.833079e-03 0
3.360376e+00 3.823538e-03 0
3.359215e+00 3.813329e-03 0
3.358056e+00 3.802478e-03 0
3.356899e+00 3.791006e-03 0
3.355743e+00 3.778928e-03 0
3.354589e+00 3.766258e-03 0
3.353437e+00 3.753004e-03 0
3.352288e+00 3.739180e-03 0
3.351140e+00 3.724797e-03 0
3.349995e+00 3.709868e-03 0
3.348853e+00 3.694401e-03 0
3.347713e+00 3.678400e-03 0
3.346577e+00 3.661868e-03 0
3.345443e+00 3.644807e-03 0
3.344312e+00 3.627217e-03 0
3.343185e+00 3.609102e-03 0
3.342061e+00 3.590461e-03 0
3.340940e+00 3.571295e-03 0
3.339823e+00 3.551602e-03 0
3.338710e+00 3.531376e-03 0
3.337601e+00 3.510614e-03 0
3.336496e+00 3.489308e-03 0
3.335395e+00 3.467450e-03 0
3.334298e+00 3.445031e-03 0
3.333206e+00 3.422038e-03 0
3.332119e+00 3.398452e-03 0
3.331036e+00 3.374248e-03 0
3.329958e+00 3.349392e-03 0
3.328886e+00 3.323833e-03 0
3.327818e+00 3.297502e-03 0
3.326756e+00 3.270296e-03 0
3.325700e+00 3.242067e-03 0
3.324649e+00 3.212596e-03 0
3.323604e+00 3.181565e-03 0
3.322566e+00 3.148493e-03 0
3.321534e+00 3.112661e-03 0
3.320508e+00 3.072979e-03 0
3.319490e+00 3.027795e-03 0
3.318477e+00 2.974700e-03 0
3.317469e+00 2.910631e-03 0
3.316461e+00 2.832589e-03 0
3.315443e+00 2.758936e-03 0
3.315443e+00 2.728135e-03 0
3.892629e+00 -1.425406e-04 0
3.892629e+00 -1.342604e-04 0
3.892668e+00 -1.021473e-04 0
3.892702e+00 -3.808191e-05 0
3.892727e+00 5.984286e-05 0
3.892739e+00 1.942819e-04 0
3.892733e+00 3.688608e-04 0
3.892706e+00 5.880885e-04 0
3.892650e+00 8.573645e-04 0
3.892559e+00 1.182937e-03 0
3.892425e+00 1.571869e-03 0
3.892239e+00 2.032085e-03 0
3.891992e+00 2.572398e-03 0
3.891671e+00 3.202571e-03 0
3.891264e+00 3.933524e-03 0
3.890756e+00 4.777519e-03 0
3.890134e+00 5.748432e-03 0
3.889380e+00 6.862214e-03 0
3.888475e+00 8.137445e-03 0
3.887400e+00 9.596153e-03 0
3.886133e+00 1.126486e-02 0
3.884649e+00 1.317590e-02 0
3.882920e+00 1.536911e-02 0
3.880916e+00 1.789418e-02 0
3.878595e+00 2.081343e-02 0
3.875905e+00 2.420554e-02 0
3.872770e+00 2.816990e-02 0
3.869063e+00 3.282988e-02 0
3.864561e+00 3.832646e-02 0
3.858825e+00 4.476920e-02 0
3.850975e+00 5.202870e-02 0
3.839308e+00 5.904115e-02 0
3.821190e+00 6.198193e-02 0
3.799962e+00 5.554000e-02 0
3.789841e+00 4.280957e-02 0
3.786128e+00 3.099718e-02 0
3.785155e+00 2.189856e-02 0
3.785195e+00 1.527232e-02 0
3.785549e+00 1.050790e-02 0
3.785956e+00 7.079052e-03 0
3.786330e+00 4.603268e-03 0
3.786645e+00 2.813489e-03 0
3.786896e+00 1.524619e-03 0
3.787079e+00 6.076801e-04 0
3.787199e+00 -3.093699e-05 0
3.787252e+00 -4.583504e-04 0
3.787242e+00 -7.205668e-04 0
3.787174e+00 -8.515435e-04 0
3.787057e+00 -8.778717e-04 0
3.786897e+00 -8.211097e-04 0
3.786700e+00 -6.990713e-04 0
3.786472e+00 -5.265787e-04 0
3.786216e+00 -3.157292e-04 0
3.785938e+00 -8.005585e-05 0
3.785639e+00 1.690614e-04 0
3.785319e+00 4.268408e-04 0
3.784974e+00 6.883151e-04 0
3.784603e+00 9.473724e-04 0
3.784205e+00 1.199392e-03 0
3.783779e+00 1.441470e-03 0
3.783325e+00 1.672185e-03 0
3.782842e+00 1.891127e-03 0
3.782330e+00 2.098515e-03 0
3.781790e+00 2.294812e-03 0
3.781222e+00 2.480525e-03 0
3.780628e+00 2.656132e-03 0
3.780010e+00 2.822080e-03 0
3.779367e+00 2.978797e-03 0
3.778702e+00 3.126696e-03 0
3.778016e+00 3.266174e-03 0
3.777310e+00 3.397605e-03 0
3.776585e+00 3.521344e-03 0