<?xml version="1.0"?>
<VTKFile type="StructuredGrid">
<StructuredGrid WholeExtent="0 158 0 30 0 0 ">
<Piece Extent="0 158 0 30 0 0 ">
<Points>
<DataArray type="Float64" format="ascii" NumberOfComponents="3">
0.000000e+00 0.000000e+00 0.000000e+00
3.164557e-02 0.000000e+00 0.000000e+00
6.329114e-02 0.000000e+00 0.000000e+00
9.493671e-02 0.000000e+00 0.000000e+00
1.265823e-01 0.000000e+00 0.000000e+00
1.582278e-01 0.000000e+00 0.000000e+00
1.898734e-01 0.000000e+00 0.000000e+00
2.215190e-01 0.000000e+00 0.000000e+00
2.531646e-01 0.000000e+00 0.000000e+00
2.848101e-01 0.000000e+00 0.000000e+00
3.164557e-01 0.000000e+00 0.000000e+00
3.481013e-01 0.000000e+00 0.000000e+00
3.797468e-01 0.000000e+00 0.000000e+00
4.113924e-01 0.000000e+00 0.000000e+00
4.430380e-01 0.000000e+00 0.000000e+00
4.746835e-01 0.000000e+00 0.000000e+00
5.063291e-01 0.000000e+00 0.000000e+00
5.379747e-01 0.000000e+00 0.000000e+00
5.696203e-01 0.000000e+00 0.000000e+00
6.012658e-01 0.000000e+00 0.000000e+00
6.329114e-01 0.000000e+00 0.000000e+00
6.645570e-01 0.000000e+00 0.000000e+00
6.962025e-01 0.000000e+00 0.000000e+00
7.278481e-01 0.000000e+00 0.000000e+00
7.594937e-01 0.000000e+00 0.000000e+00
7.911392e-01 0.000000e+00 0.000000e+00
8.227848e-01 0.000000e+00 0.000000e+00
8.544304e-01 0.000000e+00 0.000000e+00
8.860759e-01 0.000000e+00 0.000000e+00
9.177215e-01 0.000000e+00 0.000000e+00
9.493671e-01 0.000000e+00 0.000000e+00
9.810127e-01 0.000000e+00 0.000000e+00
1.012658e+00 0.000000e+00 0.000000e+00
1.044304e+00 0.000000e+00 0.000000e+00
1.075949e+00 0.000000e+00 0.000000e+00
1.107595e+00 0.000000e+00 0.000000e+00
1.139241e+00 0.000000e+00 0.000000e+00
1.170886e+00 0.000000e+00 0.000000e+00
1.202532e+00 0.000000e+00 0.000000e+00
1.234177e+00 0.000000e+00 0.000000e+00
1.265823e+00 0.000000e+00 0.000000e+00
1.297468e+00 0.000000e+00 0.000000e+00
1.329114e+00 0.000000e+00 0.000000e+00
1.360759e+00 0.000000e+00 0.000000e+00
1.392405e+00 0.000000e+00 0.000000e+00
1.424051e+00 0.000000e+00 0.000000e+00
1.455696e+00 0.000000e+00 0.000000e+00
1.487342e+00 0.000000e+00 0.000000e+00
1.518987e+00 0.000000e+00 0.000000e+00
1.550633e+00 0.000000e+00 0.000000e+00
1.582278e+00 0.000000e+00 0.000000e+00
1.613924e+00 0.000000e+00 0.000000e+00
1.645570e+00 0.000000e+00 0.000000e+00
1.677215e+00 0.000000e+00 0.000000e+00
1.708861e+00 0.000000e+00 0.000000e+00
1.740506e+00 0.000000e+00 0.000000e+00
1.772152e+00 0.000000e+00 0.000000e+00
1.803797e+00 0.000000e+00 0.000000e+00
1.835443e+00 0.000000e+00 0.000000e+00
1.867089e+00 0.000000e+00 0.000000e+00
1.898734e+00 0.000000e+00 0.000000e+00
1.930380e+00 0.000000e+00 0.000000e+00
1.962025e+00 0.000000e+00 0.000000e+00
1.993671e+00 0.000000e+00 0.000000e+00
2.025316e+00 0.000000e+00 0.000000e+00
2.056962e+00 0.000000e+00 0.000000e+00
2.088608e+00 0.000000e+00 0.000000e+00
2.120253e+00 0.000000e+00 0.000000e+00
2.151899e+00 0.000000e+00 0.000000e+00
2.183544e+00 0.000000e+00 0.000000e+00
2.215190e+00 0.000000e+00 0.000000e+00
2.246835e+00 0.000000e+00 0.000000e+00
2.278481e+00 0.000000e+00 0.000000e+00
2.310127e+00 0.000000e+00 0.000000e+00
2.341772e+00 0.000000e+00 0.000000e+00
2.373418e+00 0.000000e+00 0.000000e+00
2.405063e+00 0.000000e+00 0.000000e+00
2.436709e+00 0.000000e+00 0.000000e+00
2.468354e+00 0.000000e+00 0.000000e+00
2.500000e+00 0.000000e+00 0.000000e+00
2.531646e+00 0.000000e+00 0.000000e+00
2.563291e+00 0.000000e+00 0.000000e+00
2.594937e+00 0.000000e+00 0.000000e+00
2.626582e+00 0.000000e+00 0.000000e+00
2.658228e+00 0.000000e+00 0.000000e+00
2.689873e+00 0.000000e+00 0.000000e+00
2.721519e+00 0.000000e+00 0.000000e+00
2.753165e+00 0.000000e+00 0.000000e+00
2.784810e+00 0.000000e+00 0.000000e+00
2.816456e+00 0.000000e+00 0.000000e+00
2.848101e+00 0.000000e+00 0.000000e+00
2.879747e+00 0.000000e+00 0.000000e+00
2.911392e+00 0.000000e+00 0.000000e+00
2.943038e+00 0.000000e+00 0.000000e+00
2.974684e+00 0.000000e+00 0.000000e+00
3.006329e+00 0.000000e+00 0.000000e+00
3.037975e+00 0.000000e+00 0.000000e+00
3.069620e+00 0.000000e+00 0.000000e+00
3.101266e+00 0.000000e+00 0.000000e+00
3.132911e+00 0.000000e+00 0.000000e+00
3.164557e+00 0.000000e+00 0.000000e+00
3.196203e+00 0.000000e+00 0.000000e+00
3.227848e+00 0.000000e+00 0.000000e+00
3.259494e+00 0.000000e+00 0.000000e+00
3.291139e+00 0.000000e+00 0.000000e+00
3.322785e+00 0.000000e+00 0.000000e+00
3.354430e+00 0.000000e+00 0.000000e+00
3.386076e+00 0.000000e+00 0.000000e+00
3.417722e+00 0.000000e+00 0.000000e+00
3.449367e+00 0.000000e+00 0.000000e+00
3.481013e+00 0.000000e+00 0.000000e+00
3.512658e+00 0.000000e+00 0.000000e+00
3.544304e+00 0.000000e+00 0.000000e+00
3.575949e+00 0.000000e+00 0.000000e+00
3.607595e+00 0.000000e+00 0.000000e+00
3.639241e+00 0.000000e+00 0.000000e+00
3.670886e+00 0.000000e+00 0.000000e+00
3.702532e+00 0.000000e+00 0.000000e+00
3.734177e+00 0.000000e+00 0.000000e+00
3.765823e+00 0.000000e+00 0.000000e+00
3.797468e+00 0.000000e+00 0.000000e+00
3.829114e+00 0.000000e+00 0.000000e+00
3.860759e+00 0.000000e+00 0.000000e+00
3.892405e+00 0.000000e+00 0.000000e+00
3.924051e+00 0.000000e+00 0.000000e+00
3.955696e+00 0.000000e+00 0.000000e+00
3.987342e+00 0.000000e+00 0.000000e+00
4.018987e+00 0.000000e+00 0.000000e+00
4.050633e+00 0.000000e+00 0.000000e+00
4.082278e+00 0.000000e+00 0.000000e+00
4.113924e+00 0.000000e+00 0.000000e+00
4.145570e+00 0.000000e+00 0.000000e+00
4.177215e+00 0.000000e+00 0.000000e+00
4.208861e+00 0.000000e+00 0.000000e+00
4.240506e+00 0.000000e+00 0.000000e+00
4.272152e+00 0.000000e+00 0.000000e+00
4.303797e+00 0.000000e+00 0.000000e+00
4.335443e+00 0.000000e+00 0.000000e+00
4.367089e+00 0.000000e+00 0.000000e+00
4.398734e+00 0.000000e+00 0.000000e+00
4.430380e+00 0.000000e+00 0.000000e+00
4.462025e+00 0.000000e+00 0.000000e+00
4.493671e+00 0.000000e+00 0.000000e+00
4.525316e+00 0.000000e+00 0.000000e+00
4.556962e+00 0.000000e+00 0.000000e+00
4.588608e+00 0.000000e+00 0.000000e+00
4.620253e+00 0.000000e+00 0.000000e+00
4.651899e+00 0.000000e+00 0.000000e+00
4.683544e+00 0.000000e+00 0.000000e+00
4.715190e+00 0.000000e+00 0.000000e+00
4.746835e+00 0.000000e+00 0.000000e+00
4.778481e+00 0.000000e+00 0.000000e+00
4.810127e+00 0.000000e+00 0.000000e+00
4.841772e+00 0.000000e+00 0.000000e+00
4.873418e+00 0.000000e+00 0.000000e+00
4.905063e+00 0.000000e+00 0.000000e+00
4.936709e+00 0.000000e+00 0.000000e+00
4.968354e+00 0.000000e+00 0.000000e+00
5.000000e+00 0.000000e+00 0.000000e+00
0.000000e+00 3.333333e-02 0.000000e+00
3.164557e-02 3.333333e-02 0.000000e+00
6.329114e-02 3.333333e-02 0.000000e+00
9.493671e-02 3.333333e-02 0.000000e+00
1.265823e-01 3.333333e-02 0.000000e+00
1.582278e-01 3.333333e-02 0.000000e+00
1.898734e-01 3.333333e-02 0.000000e+00
2.215190e-01 3.333333e-02 0.000000e+00
2.531646e-01 3.333333e-02 0.000000e+00
2.848101e-01 3.333333e-02 0.000000e+00
3.164557e-01 3.333333e-02 0.000000e+00
3.481013e-01 3.333333e-02 0.000000e+00
3.797468e-01 3.333333e-02 0.000000e+00
4.113924e-01 3.333333e-02 0.000000e+00
4.430380e-01 3.333333e-02 0.000000e+00
4.746835e-01 3.333333e-02 0.000000e+00
5.063291e-01 3.333333e-02 0.000000e+00
5.379747e-01 3.333333e-02 0.000000e+00
5.696203e-01 3.333333e-02 0.000000e+00
6.012658e-01 3.333333e-02 0.000000e+00
6.329114e-01 3.333333e-02 0.000000e+00
6.645570e-01 3.333333e-02 0.000000e+00
6.962025e-01 3.333333e-02 0.000000e+00
7.278481e-01 3.333333e-02 0.000000e+00
7.594937e-01 3.333333e-02 0.000000e+00
7.911392e-01 3.333333e-02 0.000000e+00
8.227848e-01 3.333333e-02 0.000000e+00
8.544304e-01 3.333333e-02 0.000000e+00
8.860759e-01 3.333333e-02 0.000000e+00
9.177215e-01 3.333333e-02 0.000000e+00
9.493671e-01 3.333333e-02 0.000000e+00
9.810127e-01 3.333333e-02 0.000000e+00
1.012658e+00 3.333333e-02 0.000000e+00
1.044304e+00 3.333333e-02 0.000000e+00
1.075949e+00 3.333333e-02 0.000000e+00
1.107595e+00 3.333333e-02 0.000000e+00
1.139241e+00 3.333333e-02 0.000000e+00
1.170886e+00 3.333333e-02 0.000000e+00
1.202532e+00 3.333333e-02 0.000000e+00
1.234177e+00 3.333333e-02 0.000000e+00
1.265823e+00 3.333333e-02 0.000000e+00
1.297468e+00 3.333333e-02 0.000000e+00
1.329114e+00 3.333333e-02 0.000000e+00
1.360759e+00 3.333333e-02 0.000000e+00
1.392405e+00 3.333333e-02 0.000000e+00
1.424051e+00 3.333333e-02 0.000000e+00
1.455696e+00 3.333333e-02 0.000000e+00
1.487342e+00 3.333333e-02 0.000000e+00
1.518987e+00 3.333333e-02 0.000000e+00
1.550633e+00 3.333333e-02 0.000000e+00
1.582278e+00 3.333333e-02 0.000000e+00
1.613924e+00 3.333333e-02 0.000000e+00
1.645570e+00 3.333333e-02 0.000000e+00
1.677215e+00 3.333333e-02 0.000000e+00
1.708861e+00 3.333333e-02 0.000000e+00
1.740506e+00 3.333333e-02 0.000000e+00
1.772152e+00 3.333333e-02 0.000000e+00
1.803797e+00 3.333333e-02 0.000000e+00
1.835443e+00 3.333333e-02 0.000000e+00
1.867089e+00 3.333333e-02 0.000000e+00
1.898734e+00 3.333333e-02 0.000000e+00
1.930380e+00 3.333333e-02 0.000000e+00
1.962025e+00 3.333333e-02 0.000000e+00
1.993671e+00 3.333333e-02 0.000000e+00
2.025316e+00 3.333333e-02 0.000000e+00
2.056962e+00 3.333333e-02 0.000000e+00
2.088608e+00 3.333333e-02 0.000000e+00
2.120253e+00 3.333333e-02 0.000000e+00
2.151899e+00 3.333333e-02 0.000000e+00
2.183544e+00 3.333333e-02 0.000000e+00
2.215190e+00 3.333333e-02 0.000000e+00
2.246835e+00 3.333333e-02 0.000000e+00
2.278481e+00 3.333333e-02 0.000000e+00
2.310127e+00 3.333333e-02 0.000000e+00
2.341772e+00 3.333333e-02 0.000000e+00
2.373418e+00 3.333333e-02 0.000000e+00
2.405063e+00 3.333333e-02 0.000000e+00
2.436709e+00 3.333333e-02 0.000000e+00
2.468354e+00 3.333333e-02 0.000000e+00
2.500000e+00 3.333333e-02 0.000000e+00
2.531646e+00 3.333333e-02 0.000000e+00
2.563291e+00 3.333333e-02 0.000000e+00
2.594937e+00 3.333333e-02 0.000000e+00
2.626582e+00 3.333333e-02 0.000000e+00
2.658228e+00 3.333333e-02 0.000000e+00
2.689873e+00 3.333333e-02 0.000000e+00
2.721519e+00 3.333333e-02 0.000000e+00
2.753165e+00 3.333333e-02 0.000000e+00
2.784810e+00 3.333333e-02 0.000000e+00
2.816456e+00 3.333333e-02 0.000000e+00
2.848101e+00 3.333333e-02 0.000000e+00
2.879747e+00 3.333333e-02 0.000000e+00
[...]
<PointData>
<DataArray Name="Velocity" type="Float64" format="ascii" NumberOfComponents="3">
0.000000e+00 0.000000e+00 0
0.000000e+00 0.000000e+00 0
0.000000e+00 0.000000e+00 0
0.000000e+00 0.000000e+00 0
0.000000e+00 0.000000e+00 0
0.000000e+00 0.000000e+00 0
0.000000e+00 0.000000e+00 0
0.000000e+00 0.000000e+00 0
0.000000e+00 0.000000e+00 0
0.000000e+00 0.000000e+00 0
0.000000e+00 0.000000e+00 0
0.000000e+00 0.000000e+00 0
0.000000e+00 0.000000e+00 0
0.000000e+00 0.000000e+00 0
0.000000e+00 0.000000e+00 0
0.000000e+00 0.000000e+00 0
0.000000e+00 0.000000e+00 0
0.000000e+00 0.000000e+00 0
0.000000e+00 0.000000e+00 0
-4.107469e-17 0.000000e+00 0
0.000000e+00 0.000000e+00 0
0.000000e+00 0.000000e+00 0
0.000000e+00 0.000000e+00 0
3.610507e-17 0.000000e+00 0
0.000000e+00 0.000000e+00 0
0.000000e+00 0.000000e+00 0
0.000000e+00 0.000000e+00 0
-2.574847e-17 0.000000e+00 0
0.000000e+00 0.000000e+00 0
0.000000e+00 0.000000e+00 0
0.000000e+00 0.000000e+00 0
-1.480953e-17 0.000000e+00 0
0.000000e+00 0.000000e+00 0
0.000000e+00 0.000000e+00 0
0.000000e+00 0.000000e+00 0
0.000000e+00 0.000000e+00 0
0.000000e+00 0.000000e+00 0
0.000000e+00 0.000000e+00 0
2.221128e-17 0.000000e+00 0
0.000000e+00 0.000000e+00 0
0.000000e+00 0.000000e+00 0
0.000000e+00 0.000000e+00 0
0.000000e+00 0.000000e+00 0
0.000000e+00 0.000000e+00 0
0.000000e+00 0.000000e+00 0
0.000000e+00 0.000000e+00 0
2.317670e-17 0.000000e+00 0
0.000000e+00 0.000000e+00 0
0.000000e+00 0.000000e+00 0
0.000000e+00 0.000000e+00 0
0.000000e+00 0.000000e+00 0
0.000000e+00 0.000000e+00 0
0.000000e+00 0.000000e+00 0
0.000000e+00 0.000000e+00 0
3.887821e-18 0.000000e+00 0
0.000000e+00 0.000000e+00 0
0.000000e+00 0.000000e+00 0
0.000000e+00 0.000000e+00 0
0.000000e+00 0.000000e+00 0
0.000000e+00 0.000000e+00 0
0.000000e+00 0.000000e+00 0
0.000000e+00 0.000000e+00 0
5.898107e-18 0.000000e+00 0
0.000000e+00 0.000000e+00 0
0.000000e+00 0.000000e+00 0
0.000000e+00 0.000000e+00 0
0.000000e+00 0.000000e+00 0
0.000000e+00 0.000000e+00 0
0.000000e+00 0.000000e+00 0
0.000000e+00 0.000000e+00 0
0.000000e+00 0.000000e+00 0
0.000000e+00 0.000000e+00 0
0.000000e+00 0.000000e+00 0
0.000000e+00 0.000000e+00 0
0.000000e+00 0.000000e+00 0
0.000000e+00 0.000000e+00 0
0.000000e+00 0.000000e+00 0
0.000000e+00 0.000000e+00 0
0.000000e+00 0.000000e+00 0
0.000000e+00 0.000000e+00 0
0.000000e+00 0.000000e+00 0
0.000000e+00 0.000000e+00 0
0.000000e+00 0.000000e+00 0
0.000000e+00 0.000000e+00 0
0.000000e+00 0.000000e+00 0
0.000000e+00 0.000000e+00 0
0.000000e+00 0.000000e+00 0
0.000000e+00 0.000000e+00 0
0.000000e+00 0.000000e+00 0
0.000000e+00 0.000000e+00 0
0.000000e+00 0.000000e+00 0
0.000000e+00 0.000000e+00 0
0.000000e+00 0.000000e+00 0
0.000000e+00 0.000000e+00 0
0.000000e+00 0.000000e+00 0
0.000000e+00 0.000000e+00 0
0.000000e+00 0.000000e+00 0
0.000000e+00 0.000000e+00 0
0.000000e+00 0.000000e+00 0
0.000000e+00 0.000000e+00 0
0.000000e+00 0.000000e+00 0
0.000000e+00 0.000000e+00 0
0.000000e+00 0.000000e+00 0
0.000000e+00 0.000000e+00 0
0.000000e+00 0.000000e+00 0
0.000000e+00 0.000000e+00 0
0.000000e+00 0.000000e+00 0
0.000000e+00 0.000000e+00 0
0.000000e+00 0.000000e+00 0
0.000000e+00 0.000000e+00 0
0.000000e+00 0.000000e+00 0
0.000000e+00 0.000000e+00 0
0.000000e+00 0.000000e+00 0
0.000000e+00 0.000000e+00 0
0.000000e+00 0.000000e+00 0
0.000000e+00 0.000000e+00 0
0.000000e+00 0.000000e+00 0
0.000000e+00 0.000000e+00 0
0.000000e+00 0.000000e+00 0
0.000000e+00 0.000000e+00 0
0.000000e+00 0.000000e+00 0
0.000000e+00 0.000000e+00 0
0.000000e+00 0.000000e+00 0
0.000000e+00 0.000000e+00 0
0.000000e+00 0.000000e+00 0
0.000000e+00 0.000000e+00 0
0.000000e+00 0.000000e+00 0
0.000000e+00 0.000000e+00 0
0.000000e+00 0.000000e+00 0
0.000000e+00 0.000000e+00 0
0.000000e+00 0.000000e+00 0
0.000000e+00 0.000000e+00 0
0.000000e+00 0.000000e+00 0
0.000000e+00 0.000000e+00 0
0.000000e+00 0.000000e+00 0
0.000000e+00 0.000000e+00 0
0.000000e+00 0.000000e+00 0
0.000000e+00 0.000000e+00 0
0.000000e+00 0.000000e+00 0
0.000000e+00 0.000000e+00 0
0.000000e+00 0.000000e+00 0
0.000000e+00 0.000000e+00 0
0.000000e+00 0.000000e+00 0
0.000000e+00 0.000000e+00 0
0.000000e+00 0.000000e+00 0
0.000000e+00 0.000000e+00 0
0.000000e+00 0.000000e+00 0
0.000000e+00 0.000000e+00 0
0.000000e+00 0.000000e+00 0
0.000000e+00 0.000000e+00 0
0.000000e+00 0.000000e+00 0
0.000000e+00 0.000000e+00 0
0.000000e+00 0.000000e+00 0
0.000000e+00 0.000000e+00 0
0.000000e+00 0.000000e+00 0
0.000000e+00 0.000000e+00 0
0.000000e+00 0.000000e+00 0
0.000000e+00 0.000000e+00 0
0.000000e+00 0.000000e+00 0
1.768758e+00 -4.268274e-05 0
1.768758e+00 -4.542568e-05 0
1.768796e+00 -4.003571e-05 0
1.768819e+00 -1.714476e-05 0
1.768817e+00 1.653253e-05 0
1.768779e+00 6.009298e-05 0
1.768694e+00 1.160274e-04 0
1.768550e+00 1.861415e-04 0
1.768331e+00 2.722537e-04 0
1.768022e+00 3.763698e-04 0
1.767605e+00 5.007436e-04 0
1.767059e+00 6.478741e-04 0
1.766361e+00 8.205549e-04 0
1.765486e+00 1.021980e-03 0
1.764404e+00 1.255776e-03 0
1.763083e+00 1.526099e-03 0
1.761486e+00 1.837732e-03 0
1.759571e+00 2.196153e-03 0
1.757291e+00 2.607760e-03 0
1.754591e+00 3.080132e-03 0
1.751411e+00 3.622328e-03 0
1.747678e+00 4.245297e-03 0
1.743310e+00 4.962133e-03 0
1.738211e+00 5.788150e-03 0
1.732267e+00 6.740496e-03 0
1.725349e+00 7.836580e-03 0
1.717309e+00 9.090130e-03 0
1.707986e+00 1.050254e-02 0
1.697222e+00 1.204555e-02 0
1.684899e+00 1.363136e-02 0
1.671014e+00 1.507090e-02 0
1.655813e+00 1.604177e-02 0
1.639959e+00 1.613573e-02 0
1.624614e+00 1.508880e-02 0
1.611062e+00 1.307906e-02 0
1.599961e+00 1.061775e-02 0
1.591357e+00 8.174252e-03 0
1.584956e+00 6.020702e-03 0
1.580355e+00 4.253878e-03 0
1.577158e+00 2.865876e-03 0
1.575030e+00 1.801016e-03 0
1.573707e+00 9.855435e-04 0
1.572991e+00 3.026090e-04 0
1.572733e+00 -3.126520e-04 0
1.572834e+00 -8.165776e-04 0
1.573204e+00 -1.184169e-03 0
1.573761e+00 -1.429894e-03 0
1.574435e+00 -1.571237e-03 0
1.575166e+00 -1.625923e-03 0
1.575908e+00 -1.610436e-03 0
1.576621e+00 -1.539410e-03 0
1.577276e+00 -1.425487e-03 0
1.577848e+00 -1.279385e-03 0
1.578322e+00 -1.110043e-03 0
1.578686e+00 -9.247070e-04 0
1.578931e+00 -7.285005e-04 0
1.579053e+00 -5.246314e-04 0
1.579061e+00 -3.202261e-04 0
1.578967e+00 -1.346317e-04 0
1.578783e+00 4.503348e-06 0
1.578514e+00 1.026408e-04 0
1.578169e+00 1.849364e-04 0
1.577753e+00 2.588048e-04 0
1.577273e+00 3.268727e-04 0
1.576732e+00 3.902846e-04 0
1.576134e+00 4.496490e-04 0
1.575483e+00 5.053491e-04 0
1.574781e+00 5.576600e-04 0
1.574031e+00 6.067964e-04 0
1.573237e+00 6.529328e-04 0
1.572401e+00 6.962149e-04 0
1.571526e+00 7.367714e-04 0
1.570614e+00 7.747266e-04 0
1.569666e+00 8.102108e-04 0
1.568687e+00 8.433611e-04 0
1.567677e+00 8.743116e-04 0
1.566638e+00 9.031802e-04 0
1.565573e+00 9.300619e-04 0
1.564483e+00 9.550345e-04 0
1.563370e+00 9.781738e-04 0
1.562235e+00 9.995675e-04 0
1.561080e+00 1.019317e-03 0
1.559907e+00 1.037529e-03 0
1.558717e+00 1.054300e-03 0
1.557511e+00 1.069710e-03 0
1.556290e+00 1.083824e-03 0
1.555056e+00 1.096699e-03 0
1.553809e+00 1.108392e-03 0
1.552551e+00 1.118962e-03 0
1.551283e+00 1.128470e-03 0
1.550005e+00 1.136976e-03 0
1.548719e+00 1.144538e-03 0
1.547425e+00 1.151212e-03 0
1.546125e+00 1.157045e-03 0
1.544818e+00 1.162077e-03 0
1.543506e+00 1.166345e-03 0
1.542189e+00 1.169879e-03 0
1.540869e+00 1.172717e-03 0
1.539545e+00 1.174899e-03 0
1.538218e+00 1.176469e-03 0
1.536889e+00 1.177462e-03 0
1.535558e+00 1.177909e-03 0
1.534226e+00 1.177834e-03 0
1.532894e+00 1.177260e-03 0
1.531561e+00 1.176211e-03 0
1.530228e+00 1.174712e-03 0
1.528896e+00 1.172789e-03 0
1.527564e+00 1.170463e-03 0
1.526234e+00 1.167754e-03 0
1.524906e+00 1.164677e-03 0
1.523579e+00 1.161250e-03 0
1.522255e+00 1.157487e-03 0
1.520934e+00 1.153404e-03 0
1.519615e+00 1.149017e-03 0
1.518300e+00 1.144340e-03 0
1.516988e+00 1.139384e-03 0
1.515680e+00 1.134158e-03 0
1.514376e+00 1.128671e-03 0
1.513076e+00 1.122930e-03 0
1.511781e+00 1.116943e-03 0
1.510490e+00 1.110718e-03 0
1.509204e+00 1.104263e-03 0
1.507924e+00 1.097584e-03 0
1.506649e+00 1.090688e-03 0
1.505379e+00 1.083579e-03 0
1.504115e+00 1.076262e-03 0
1.502857e+00 1.068739e-03 0
1.501606e+00 1.061012e-03 0
1.500360e+00 1.053082e-03 0
1.499122e+00 1.044950e-03 0
1.497890e+00 1.036616e-03 0
1.496665e+00 1.028083e-03 0
1.495447e+00 1.019351e-03 0
1.494237e+00 1.010422e-03 0
1.493034e+00 1.001293e-03 0
1.491839e+00 9.919645e-04 0
1.490652e+00 9.824326e-04 0
1.489473e+00 9.726946e-04 0
1.488303e+00 9.627467e-04 0
1.487141e+00 9.525846e-04 0
1.485988e+00 9.422027e-04 0
1.484844e+00 9.315932e-04 0
1.483710e+00 9.207451e-04 0
1.482585e+00 9.096424e-04 0
1.481469e+00 8.982633e-04 0
1.480364e+00 8.865762e-04 0
1.479269e+00 8.745352e-04 0
1.478185e+00 8.620740e-04 0
1.477112e+00 8.490944e-04 0
1.476051e+00 8.354481e-04 0
1.475002e+00 8.209082e-04 0
1.473967e+00 8.051121e-04 0
1.472947e+00 7.874573e-04 0
1.471943e+00 7.668622e-04 0
1.470960e+00 7.409776e-04 0
1.470002e+00 7.054190e-04 0
1.469078e+00 6.186694e-04 0
1.468203e+00 7.074133e-04 0
1.468203e+00 8.620238e-04 0
2.768510e+00 -8.449886e-05 0
2.768510e+00 -8.156105e-05 0
2.768542e+00 -6.331527e-05 0
2.768561e+00 -2.177865e-05 0
2.768561e+00 4.186801e-05 0
2.768530e+00 1.288279e-04 0
2.768458e+00 2.413943e-04 0
2.768332e+00 3.825356e-04 0
2.768141e+00 5.557240e-04 0
2.767870e+00 7.649524e-04 0
2.767504e+00 1.014731e-03 0
2.767023e+00 1.310117e-03 0
2.766407e+00 1.656826e-03 0
2.765634e+00 2.061300e-03 0
2.764677e+00 2.530829e-03 0
2.763508e+00 3.073715e-03 0
2.762093e+00 3.699434e-03 0
2.760396e+00 4.418958e-03 0
2.758375e+00 5.245155e-03 0
2.755982e+00 6.193290e-03 0
2.753162e+00 7.281726e-03 0
2.749853e+00 8.532571e-03 0
2.745981e+00 9.972311e-03 0
2.741461e+00 1.163217e-02 0
2.736192e+00 1.354763e-02 0
2.730054e+00 1.575598e-02 0
2.722904e+00 1.828934e-02 0
2.714574e+00 2.115835e-02 0
2.704873e+00 2.431824e-02 0
2.693600e+00 2.760535e-02 0
2.680601e+00 3.063725e-02 0
2.665921e+00 3.271117e-02 0
2.650139e+00 3.286213e-02 0
2.634815e+00 3.043806e-02 0
2.621980e+00 2.596819e-02 0
2.612158e+00 2.075665e-02 0
2.604991e+00 1.580539e-02 0
2.599889e+00 1.158883e-02 0
2.596318e+00 8.214329e-03 0
2.593861e+00 5.608635e-03 0
2.592210e+00 3.634862e-03 0
2.591141e+00 2.147745e-03 0
2.590485e+00 1.026641e-03 0
2.590068e+00 1.661824e-04 0
2.589774e+00 -4.963110e-04 0
2.589558e+00 -9.768595e-04 0
2.589390e+00 -1.296647e-03 0
2.589246e+00 -1.480309e-03 0
2.589109e+00 -1.551623e-03 0
2.588967e+00 -1.532046e-03 0
2.588808e+00 -1.440336e-03 0
2.588624e+00 -1.292599e-03 0
2.588409e+00 -1.102536e-03 0
2.588158e+00 -8.818145e-04 0
2.587868e+00 -6.405846e-04 0
2.587537e+00 -3.869045e-04 0
2.587176e+00 -1.370186e-04 0
2.586788e+00 9.023614e-05 0
2.586373e+00 2.928859e-04 0
2.585922e+00 4.777658e-04 0
2.585414e+00 6.468852e-04 0
2.584845e+00 8.010440e-04 0
2.584218e+00 9.432756e-04 0
2.583534e+00 1.075726e-03 0
2.582798e+00 1.199742e-03 0
2.582011e+00 1.316205e-03 0
2.581177e+00 1.425733e-03 0
2.580299e+00 1.528797e-03 0
2.579378e+00 1.625777e-03 0
2.578417e+00 1.716994e-03 0
2.577419e+00 1.802728e-03 0
2.576386e+00 1.883237e-03 0
2.575319e+00 1.958770e-03 0
2.574221e+00 2.029577e-03 0
2.573093e+00 2.095905e-03 0
2.571937e+00 2.157987e-03 0
2.570756e+00 2.216032e-03 0
2.569550e+00 2.270226e-03 0
2.568322e+00 2.320740e-03 0
2.567071e+00 2.367747e-03 0
2.565801e+00 2.411427e-03 0
2.564512e+00 2.451966e-03 0
2.563206e+00 2.489543e-03 0
2.561883e+00 2.524325e-03 0
2.560545e+00 2.556456e-03 0
2.559193e+00 2.586066e-03 0
2.557828e+00 2.613279e-03 0
2.556451e+00 2.638212e-03 0
2.555063e+00 2.660984e-03 0
2.553664e+00 2.681710e-03 0
2.552255e+00 2.700499e-03 0
2.550838e+00 2.717457e-03 0
2.549412e+00 2.732684e-03 0
2.547980e+00 2.746266e-03 0
2.546540e+00 2.758282e-03 0
2.545095e+00 2.768805e-03 0
2.543643e+00 2.777910e-03 0
2.542187e+00 2.785672e-03 0
2.540727e+00 2.792166e-03 0
2.539263e+00 2.797463e-03 0
2.537795e+00 2.801626e-03 0
2.536325e+00 2.804711e-03 0
2.534852e+00 2.806769e-03 0
2.533377e+00 2.807851e-03 0
2.531900e+00 2.808005e-03 0
2.530422e+00 2.807279e-03 0
2.528943e+00 2.805716e-03 0
2.527463e+00 2.803355e-03 0
2.525983e+00 2.800233e-03 0
2.524504e+00 2.796383e-03 0
2.523024e+00 2.791837e-03 0
2.521545e+00 2.786626e-03 0
2.520067e+00 2.780780e-03 0
2.518591e+00 2.774326e-03 0
2.517115e+00 2.767288e-03 0
2.515642e+00 2.759687e-03 0
2.514170e+00 2.751540e-03 0
2.512701e+00 2.742866e-03 0
2.511233e+00 2.733679e-03 0
2.509769e+00 2.723995e-03 0
2.508307e+00 2.713830e-03 0
2.506848e+00 2.703197e-03 0
2.505393e+00 2.692107e-03 0
2.503941e+00 2.680570e-03 0
2.502492e+00 2.668594e-03 0
2.501048e+00 2.656187e-03 0
2.499607e+00 2.643352e-03 0
2.498170e+00 2.630093e-03 0
2.496738e+00 2.616413e-03 0
2.495311e+00 2.602313e-03 0
2.493888e+00 2.587798e-03 0
2.492470e+00 2.572866e-03 0
2.491057e+00 2.557520e-03 0
2.489650e+00 2.541758e-03 0
2.488248e+00 2.525576e-03 0
2.486852e+00 2.508972e-03 0
2.485462e+00 2.491940e-03 0
2.484077e+00 2.474475e-03 0
2.482700e+00 2.456568e-03 0
2.481328e+00 2.438211e-03 0
2.479963e+00 2.419391e-03 0
2.478606e+00 2.400092e-03 0
2.477255e+00 2.380291e-03 0
2.475912e+00 2.359955e-03 0
2.474576e+00 2.339041e-03 0
2.473248e+00 2.317486e-03 0
2.471929e+00 2.295198e-03 0
2.470618e+00 2.272047e-03 0
2.469315e+00 2.247837e-03 0
2.468022e+00 2.222280e-03 0
2.466739e+00 2.194931e-03 0
2.465467e+00 2.165098e-03 0
2.464207e+00 2.131665e-03 0
2.462959e+00 2.092738e-03 0
2.461726e+00 2.045010e-03 0
2.460509e+00 1.982363e-03 0
2.459309e+00 1.895321e-03 0
2.458091e+00 1.877742e-03 0
2.458091e+00 1.911150e-03 0
3.303986e+00 -1.284792e-04 0
3.303986e+00 -1.219553e-04 0
3.304025e+00 -9.446091e-05 0
3.304055e+00 -3.774849e-05 0
3.304071e+00 4.936356e-05 0
3.304064e+00 1.690348e-04 0
3.304028e+00 3.243531e-04 0
3.303955e+00 5.193032e-04 0
3.303836e+00 7.586832e-04 0
3.303659e+00 1.048049e-03 0
3.303413e+00 1.393693e-03 0
3.303085e+00 1.802724e-03 0
3.302658e+00 2.283126e-03 0
3.302117e+00 2.843852e-03 0
3.301442e+00 3.494987e-03 0
3.300611e+00 4.247914e-03 0
3.299600e+00 5.115624e-03 0
3.298383e+00 6.113133e-03 0
3.296929e+00 7.258036e-03 0
3.295204e+00 8.571297e-03 0
3.293169e+00 1.007813e-02 0
3.290782e+00 1.180910e-02 0
3.287989e+00 1.380122e-02 0
3.284732e+00 1.609925e-02 0
3.280936e+00 1.875641e-02 0
3.276510e+00 2.183371e-02 0
3.271334e+00 2.539539e-02 0
3.265242e+00 2.949491e-02 0
3.257997e+00 3.413831e-02 0
3.249242e+00 3.919753e-02 0
3.238469e+00 4.422493e-02 0
3.225089e+00 4.812818e-02 0
3.209026e+00 4.890111e-02 0
3.192724e+00 4.474978e-02 0
3.180995e+00 3.694494e-02 0
3.173592e+00 2.851381e-02 0
3.169098e+00 2.109763e-02 0
3.166365e+00 1.515518e-02 0
3.164681e+00 1.060346e-02 0
3.163637e+00 7.193527e-03 0
3.162996e+00 4.666361e-03 0
3.162614e+00 2.802641e-03 0
3.162391e+00 1.433215e-03 0
3.162260e+00 4.366071e-04 0
3.162154e+00 -2.798806e-04 0
3.162041e+00 -7.797673e-04 0
3.161907e+00 -1.100915e-03 0
3.161748e+00 -1.275670e-03 0
3.161562e+00 -1.331680e-03 0
3.161349e+00 -1.292499e-03 0
3.161110e+00 -1.178122e-03 0
3.160845e+00 -1.005450e-03 0
3.160555e+00 -7.887127e-04 0
3.160239e+00 -5.400940e-04 0
3.159901e+00 -2.713402e-04 0
3.159544e+00 2.805565e-08 0
3.159169e+00 2.653284e-04 0
3.158768e+00 5.259679e-04 0
3.158330e+00 7.770093e-04 0
3.157850e+00 1.014286e-03 0
3.157328e+00 1.236859e-03 0
3.156762e+00 1.444933e-03 0
3.156153e+00 1.639754e-03 0
3.155501e+00 1.822629e-03 0
3.154809e+00 1.994636e-03 0
3.154078e+00 2.156618e-03 0
3.153311e+00 2.309251e-03 0
3.152509e+00 2.453089e-03 0
3.151674e+00 2.588604e-03 0
3.150808e+00 2.716211e-03 0
3.149913e+00 2.836285e-03 0
3.148990e+00 2.949182e-03 0
3.148041e+00 3.055248e-03 0
3.147067e+00 3.154823e-03 0
3.146070e+00 3.248236e-03 0
3.145051e+00 3.335795e-03 0
3.144012e+00 3.417782e-03 0
3.142953e+00 3.494455e-03 0
3.141876e+00 3.566062e-03 0
3.140782e+00 3.632852e-03 0
3.139672e+00 3.695078e-03 0
3.138547e+00 3.752987e-03 0
3.137408e+00 3.806815e-03 0
3.136256e+00 3.856778e-03 0
3.135091e+00 3.903073e-03 0
3.133915e+00 3.945882e-03 0
3.132728e+00 3.985379e-03 0
3.131532e+00 4.021733e-03 0
3.130325e+00 4.055106e-03 0
3.129111e+00 4.085656e-03 0
3.127888e+00 4.113535e-03 0
3.126658e+00 4.138884e-03 0
3.125421e+00 4.161835e-03 0
3.124178e+00 4.182507e-03 0
3.122929e+00 4.201010e-03 0
3.121674e+00 4.217449e-03 0
3.120415e+00 4.231932e-03 0
3.119151e+00 4.244562e-03 0
3.117884e+00 4.255441e-03 0
3.116612e+00 4.264661e-03 0
3.115338e+00 4.272306e-03 0
3.114060e+00 4.278453e-03 0
3.112780e+00 4.283175e-03 0
3.111497e+00 4.286542e-03 0
3.110213e+00 4.288623e-03 0
3.108927e+00 4.289480e-03 0
3.107640e+00 4.289173e-03 0
3.106351e+00 4.287753e-03 0
3.105062e+00 4.285272e-03 0
3.103772e+00 4.281775e-03 0
3.102481e+00 4.277307e-03 0
3.101190e+00 4.271910e-03 0
3.099900e+00 4.265626e-03 0
3.098610e+00 4.258489e-03 0
3.097320e+00 4.250531e-03 0
3.096030e+00 4.241781e-03 0
3.094742e+00 4.232263e-03 0
3.093454e+00 4.222002e-03 0
3.092168e+00 4.211020e-03 0
3.090883e+00 4.199339e-03 0
3.089600e+00 4.186980e-03 0
3.088318e+00 4.173958e-03 0
3.087038e+00 4.160289e-03 0
3.085760e+00 4.145986e-03 0
3.084485e+00 4.131060e-03 0
3.083211e+00 4.115518e-03 0
3.081940e+00 4.099366e-03 0
3.080672e+00 4.082609e-03 0
3.079406e+00 4.065252e-03 0
3.078143e+00 4.047297e-03 0
3.076884e+00 4.028748e-03 0
3.075627e+00 4.009604e-03 0
3.074374e+00 3.989866e-03 0
3.073124e+00 3.969529e-03 0
3.071878e+00 3.948590e-03 0
3.070636e+00 3.927043e-03 0
3.069398e+00 3.904882e-03 0
3.068164e+00 3.882098e-03 0
3.066934e+00 3.858681e-03 0
3.065709e+00 3.834618e-03 0
3.064488e+00 3.809892e-03 0
3.063272e+00 3.784481e-03 0
3.062061e+00 3.758354e-03 0
3.060855e+00 3.731470e-03 0
3.059654e+00 3.703771e-03 0
3.058459e+00 3.675178e-03 0
3.057269e+00 3.645575e-03 0
3.056086e+00 3.614797e-03 0
3.054908e+00 3.582602e-03 0
3.053737e+00 3.548638e-03 0
3.052572e+00 3.512376e-03 0
3.051415e+00 3.473032e-03 0
3.050264e+00 3.429416e-03 0
3.049121e+00 3.379740e-03 0
3.047984e+00 3.321404e-03 0
3.046852e+00 3.251127e-03 0
3.045720e+00 3.165784e-03 0
3.044577e+00 3.084653e-03 0
3.044577e+00 3.050304e-03 0
3.595529e+00 -1.776835e-04 0
3.595529e+00 -1.691983e-04 0
3.595576e+00 -1.359854e-04 0
3.595618e+00 -6.934820e-05 0
3.595651e+00 3.273484e-05 0
3.595671e+00 1.731221e-04 0
3.595674e+00 3.557512e-04 0
3.595654e+00 5.854600e-04 0
3.595605e+00 8.680573e-04 0
3.595520e+00 1.210257e-03 0
3.595391e+00 1.619709e-03 0
3.595208e+00 2.105009e-03 0
3.594961e+00 2.675745e-03 0
3.594638e+00 3.342600e-03 0
3.594226e+00 4.117475e-03 0
3.593709e+00 5.013716e-03 0
3.593072e+00 6.046438e-03 0
3.592297e+00 7.233015e-03 0
3.591364e+00 8.593769e-03 0
3.590252e+00 1.015284e-02 0
3.588938e+00 1.193933e-02 0
3.587396e+00 1.398870e-02 0
3.585597e+00 1.634465e-02 0
3.583507e+00 1.906168e-02 0
3.581082e+00 2.220817e-02 0
3.578267e+00 2.587049e-02 0
3.574979e+00 3.015798e-02 0
3.571080e+00 3.520645e-02 0
3.566326e+00 4.117146e-02 0
3.560238e+00 4.817485e-02 0
3.551850e+00 5.607811e-02 0
3.539300e+00 6.372398e-02 0
3.519710e+00 6.695370e-02 0
3.496676e+00 5.996510e-02 0
3.485771e+00 4.612128e-02 0
3.481846e+00 3.328824e-02 0
3.480890e+00 2.341779e-02 0
3.481018e+00 1.624046e-02 0
3.481471e+00 1.108740e-02 0
3.481969e+00 7.383867e-03 0
3.482417e+00 4.713082e-03 0
3.482791e+00 2.785107e-03 0
3.483083e+00 1.399279e-03 0
3.483292e+00 4.161754e-04 0
3.483424e+00 -2.651451e-04 0
3.483477e+00 -7.169772e-04 0
3.483459e+00 -9.886615e-04 0
3.483376e+00 -1.117139e-03 0
3.483238e+00 -1.131539e-03 0
3.483053e+00 -1.055544e-03 0
3.482828e+00 -9.087299e-04 0
3.482569e+00 -7.073720e-04 0
3.482281e+00 -4.646703e-04 0
3.481968e+00 -1.936913e-04 0
3.481633e+00 9.152189e-05 0
3.481279e+00 3.844153e-04 0
3.480898e+00 6.809779e-04 0
3.480488e+00 9.743125e-04 0
3.480051e+00 1.259457e-03 0
3.479585e+00 1.532924e-03 0
3.479088e+00 1.792996e-03 0
3.478559e+00 2.039149e-03 0
3.477999e+00 2.271674e-03 0
3.477408e+00 2.491208e-03 0
3.476787e+00 2.698461e-03 0
3.476137e+00 2.894111e-03 0
3.475460e+00 3.078774e-03 0
3.474757e+00 3.253007e-03 0
3.474030e+00 3.417312e-03 0
3.473279e+00 3.572153e-03 0
3.472505e+00 3.717967e-03 0
3.471711e+00 3.855177e-03 0