<?xml version="1.0"?>
<VTKFile type="StructuredGrid">
<StructuredGrid WholeExtent="0 158 0 30 0 0 ">
<Piece Extent="0 158 0 30 0 0 ">
<Points>
<DataArray type="Float64" format="ascii" NumberOfComponents="3">
0.000000e+00 0.000000e+00 0.000000e+00
3.164557e-02 0.000000e+00 0.000000e+00
6.329114e-02 0.000000e+00 0.000000e+00
9.493671e-02 0.000000e+00 0.000000e+00
1.265823e-01 0.000000e+00 0.000000e+00
1.582278e-01 0.000000e+00 0.000000e+00
1.898734e-01 0.000000e+00 0.000000e+00
2.215190e-01 0.000000e+00 0.000000e+00
2.531646e-01 0.000000e+00 0.000000e+00
2.848101e-01 0.000000e+00 0.000000e+00
3.164557e-01 0.000000e+00 0.000000e+00
3.481013e-01 0.000000e+00 0.000000e+00
3.797468e-01 0.000000e+00 0.000000e+00
4.113924e-01 0.000000e+00 0.000000e+00
4.430380e-01 0.000000e+00 0.000000e+00
4.746835e-01 0.000000e+00 0.000000e+00
5.063291e-01 0.000000e+00 0.000000e+00
5.379747e-01 0.000000e+00 0.000000e+00
5.696203e-01 0.000000e+00 0.000000e+00
6.012658e-01 0.000000e+00 0.000000e+00
6.329114e-01 0.000000e+00 0.000000e+00
6.645570e-01 0.000000e+00 0.000000e+00
6.962025e-01 0.000000e+00 0.000000e+00
7.278481e-01 0.000000e+00 0.000000e+00
7.594937e-01 0.000000e+00 0.000000e+00
7.911392e-01 0.000000e+00 0.000000e+00
8.227848e-01 0.000000e+00 0.000000e+00
8.544304e-01 0.000000e+00 0.000000e+00
8.860759e-01 0.000000e+00 0.000000e+00
9.177215e-01 0.000000e+00 0.000000e+00
9.493671e-01 0.000000e+00 0.000000e+00
9.810127e-01 0.000000e+00 0.000000e+00
1.012658e+00 0.000000e+00 0.000000e+00
1.044304e+00 0.000000e+00 0.000000e+00
1.075949e+00 0.000000e+00 0.000000e+00
1.107595e+00 0.000000e+00 0.000000e+00
1.139241e+00 0.000000e+00 0.000000e+00
1.170886e+00 0.000000e+00 0.000000e+00
1.202532e+00 0.000000e+00 0.000000e+00
1.234177e+00 0.000000e+00 0.000000e+00
1.265823e+00 0.000000e+00 0.000000e+00
1.297468e+00 0.000000e+00 0.000000e+00
1.329114e+00 0.000000e+00 0.000000e+00
1.360759e+00 0.000000e+00 0.000000e+00
1.392405e+00 0.000000e+00 0.000000e+00
1.424051e+00 0.000000e+00 0.000000e+00
1.455696e+00 0.000000e+00 0.000000e+00
1.487342e+00 0.000000e+00 0.000000e+00
1.518987e+00 0.000000e+00 0.000000e+00
1.550633e+00 0.000000e+00 0.000000e+00
1.582278e+00 0.000000e+00 0.000000e+00
1.613924e+00 0.000000e+00 0.000000e+00
1.645570e+00 0.000000e+00 0.000000e+00
1.677215e+00 0.000000e+00 0.000000e+00
1.708861e+00 0.000000e+00 0.000000e+00
1.740506e+00 0.000000e+00 0.000000e+00
1.772152e+00 0.000000e+00 0.000000e+00
1.803797e+00 0.000000e+00 0.000000e+00
1.835443e+00 0.000000e+00 0.000000e+00
1.867089e+00 0.000000e+00 0.000000e+00
1.898734e+00 0.000000e+00 0.000000e+00
1.930380e+00 0.000000e+00 0.000000e+00
1.962025e+00 0.000000e+00 0.000000e+00
1.993671e+00 0.000000e+00 0.000000e+00
2.025316e+00 0.000000e+00 0.000000e+00
2.056962e+00 0.000000e+00 0.000000e+00
2.088608e+00 0.000000e+00 0.000000e+00
2.120253e+00 0.000000e+00 0.000000e+00
2.151899e+00 0.000000e+00 0.000000e+00
2.183544e+00 0.000000e+00 0.000000e+00
2.215190e+00 0.000000e+00 0.000000e+00
2.246835e+00 0.000000e+00 0.000000e+00
2.278481e+00 0.000000e+00 0.000000e+00
2.310127e+00 0.000000e+00 0.000000e+00
2.341772e+00 0.000000e+00 0.000000e+00
2.373418e+00 0.000000e+00 0.000000e+00
2.405063e+00 0.000000e+00 0.000000e+00
2.436709e+00 0.000000e+00 0.000000e+00
2.468354e+00 0.000000e+00 0.000000e+00
2.500000e+00 0.000000e+00 0.000000e+00
2.531646e+00 0.000000e+00 0.000000e+00
2.563291e+00 0.000000e+00 0.000000e+00
2.594937e+00 0.000000e+00 0.000000e+00
2.626582e+00 0.000000e+00 0.000000e+00
2.658228e+00 0.000000e+00 0.000000e+00
2.689873e+00 0.000000e+00 0.000000e+00
2.721519e+00 0.000000e+00 0.000000e+00
2.753165e+00 0.000000e+00 0.000000e+00
2.784810e+00 0.000000e+00 0.000000e+00
2.816456e+00 0.000000e+00 0.000000e+00
2.848101e+00 0.000000e+00 0.000000e+00
2.879747e+00 0.000000e+00 0.000000e+00
2.911392e+00 0.000000e+00 0.000000e+00
2.943038e+00 0.000000e+00 0.000000e+00
2.974684e+00 0.000000e+00 0.000000e+00
3.006329e+00 0.000000e+00 0.000000e+00
3.037975e+00 0.000000e+00 0.000000e+00
3.069620e+00 0.000000e+00 0.000000e+00
3.101266e+00 0.000000e+00 0.000000e+00
3.132911e+00 0.000000e+00 0.000000e+00
3.164557e+00 0.000000e+00 0.000000e+00
3.196203e+00 0.000000e+00 0.000000e+00
3.227848e+00 0.000000e+00 0.000000e+00
3.259494e+00 0.000000e+00 0.000000e+00
3.291139e+00 0.000000e+00 0.000000e+00
3.322785e+00 0.000000e+00 0.000000e+00
3.354430e+00 0.000000e+00 0.000000e+00
3.386076e+00 0.000000e+00 0.000000e+00
3.417722e+00 0.000000e+00 0.000000e+00
3.449367e+00 0.000000e+00 0.000000e+00
3.481013e+00 0.000000e+00 0.000000e+00
3.512658e+00 0.000000e+00 0.000000e+00
3.544304e+00 0.000000e+00 0.000000e+00
3.575949e+00 0.000000e+00 0.000000e+00
3.607595e+00 0.000000e+00 0.000000e+00
3.639241e+00 0.000000e+00 0.000000e+00
3.670886e+00 0.000000e+00 0.000000e+00
3.702532e+00 0.000000e+00 0.000000e+00
3.734177e+00 0.000000e+00 0.000000e+00
3.765823e+00 0.000000e+00 0.000000e+00
3.797468e+00 0.000000e+00 0.000000e+00
3.829114e+00 0.000000e+00 0.000000e+00
3.860759e+00 0.000000e+00 0.000000e+00
3.892405e+00 0.000000e+00 0.000000e+00
3.924051e+00 0.000000e+00 0.000000e+00
3.955696e+00 0.000000e+00 0.000000e+00
3.987342e+00 0.000000e+00 0.000000e+00
4.018987e+00 0.000000e+00 0.000000e+00
4.050633e+00 0.000000e+00 0.000000e+00
4.082278e+00 0.000000e+00 0.000000e+00
4.113924e+00 0.000000e+00 0.000000e+00
4.145570e+00 0.000000e+00 0.000000e+00
4.177215e+00 0.000000e+00 0.000000e+00
4.208861e+00 0.000000e+00 0.000000e+00
4.240506e+00 0.000000e+00 0.000000e+00
4.272152e+00 0.000000e+00 0.000000e+00
4.303797e+00 0.000000e+00 0.000000e+00
4.335443e+00 0.000000e+00 0.000000e+00
4.367089e+00 0.000000e+00 0.000000e+00
4.398734e+00 0.000000e+00 0.000000e+00
4.430380e+00 0.000000e+00 0.000000e+00
4.462025e+00 0.000000e+00 0.000000e+00
4.493671e+00 0.000000e+00 0.000000e+00
4.525316e+00 0.000000e+00 0.000000e+00
4.556962e+00 0.000000e+00 0.000000e+00
4.588608e+00 0.000000e+00 0.000000e+00
4.620253e+00 0.000000e+00 0.000000e+00
4.651899e+00 0.000000e+00 0.000000e+00
4.683544e+00 0.000000e+00 0.000000e+00
4.715190e+00 0.000000e+00 0.000000e+00
4.746835e+00 0.000000e+00 0.000000e+00
4.778481e+00 0.000000e+00 0.000000e+00
4.810127e+00 0.000000e+00 0.000000e+00
4.841772e+00 0.000000e+00 0.000000e+00
4.873418e+00 0.000000e+00 0.000000e+00
4.905063e+00 0.000000e+00 0.000000e+00
4.936709e+00 0.000000e+00 0.000000e+00
4.968354e+00 0.000000e+00 0.000000e+00
5.000000e+00 0.000000e+00 0.000000e+00
0.000000e+00 3.333333e-02 0.000000e+00
3.164557e-02 3.333333e-02 0.000000e+00
6.329114e-02 3.333333e-02 0.000000e+00
9.493671e-02 3.333333e-02 0.000000e+00
1.265823e-01 3.333333e-02 0.000000e+00
1.582278e-01 3.333333e-02 0.000000e+00
1.898734e-01 3.333333e-02 0.000000e+00
2.215190e-01 3.333333e-02 0.000000e+00
2.531646e-01 3.333333e-02 0.000000e+00
2.848101e-01 3.333333e-02 0.000000e+00
3.164557e-01 3.333333e-02 0.000000e+00
3.481013e-01 3.333333e-02 0.000000e+00
3.797468e-01 3.333333e-02 0.000000e+00
4.113924e-01 3.333333e-02 0.000000e+00
4.430380e-01 3.333333e-02 0.000000e+00
4.746835e-01 3.333333e-02 0.000000e+00
5.063291e-01 3.333333e-02 0.000000e+00
5.379747e-01 3.333333e-02 0.000000e+00
5.696203e-01 3.333333e-02 0.000000e+00
6.012658e-01 3.333333e-02 0.000000e+00
6.329114e-01 3.333333e-02 0.000000e+00
6.645570e-01 3.333333e-02 0.000000e+00
6.962025e-01 3.333333e-02 0.000000e+00
7.278481e-01 3.333333e-02 0.000000e+00
7.594937e-01 3.333333e-02 0.000000e+00
7.911392e-01 3.333333e-02 0.000000e+00
8.227848e-01 3.333333e-02 0.000000e+00
8.544304e-01 3.333333e-02 0.000000e+00
8.860759e-01 3.333333e-02 0.000000e+00
9.177215e-01 3.333333e-02 0.000000e+00
9.493671e-01 3.333333e-02 0.000000e+00
9.810127e-01 3.333333e-02 0.000000e+00
1.012658e+00 3.333333e-02 0.000000e+00
1.044304e+00 3.333333e-02 0.000000e+00
1.075949e+00 3.333333e-02 0.000000e+00
1.107595e+00 3.333333e-02 0.000000e+00
1.139241e+00 3.333333e-02 0.000000e+00
1.170886e+00 3.333333e-02 0.000000e+00
1.202532e+00 3.333333e-02 0.000000e+00
1.234177e+00 3.333333e-02 0.000000e+00
1.265823e+00 3.333333e-02 0.000000e+00
1.297468e+00 3.333333e-02 0.000000e+00
1.329114e+00 3.333333e-02 0.000000e+00
1.360759e+00 3.333333e-02 0.000000e+00
1.392405e+00 3.333333e-02 0.000000e+00
1.424051e+00 3.333333e-02 0.000000e+00
1.455696e+00 3.333333e-02 0.000000e+00
1.487342e+00 3.333333e-02 0.000000e+00
1.518987e+00 3.333333e-02 0.000000e+00
1.550633e+00 3.333333e-02 0.000000e+00
1.582278e+00 3.333333e-02 0.000000e+00
1.613924e+00 3.333333e-02 0.000000e+00
1.645570e+00 3.333333e-02 0.000000e+00
1.677215e+00 3.333333e-02 0.000000e+00
1.708861e+00 3.333333e-02 0.000000e+00
1.740506e+00 3.333333e-02 0.000000e+00
1.772152e+00 3.333333e-02 0.000000e+00
1.803797e+00 3.333333e-02 0.000000e+00
1.835443e+00 3.333333e-02 0.000000e+00
1.867089e+00 3.333333e-02 0.000000e+00
1.898734e+00 3.333333e-02 0.000000e+00
1.930380e+00 3.333333e-02 0.000000e+00
1.962025e+00 3.333333e-02 0.000000e+00
1.993671e+00 3.333333e-02 0.000000e+00
2.025316e+00 3.333333e-02 0.000000e+00
2.056962e+00 3.333333e-02 0.000000e+00
2.088608e+00 3.333333e-02 0.000000e+00
2.120253e+00 3.333333e-02 0.000000e+00
2.151899e+00 3.333333e-02 0.000000e+00
2.183544e+00 3.333333e-02 0.000000e+00
2.215190e+00 3.333333e-02 0.000000e+00
2.246835e+00 3.333333e-02 0.000000e+00
2.278481e+00 3.333333e-02 0.000000e+00
2.310127e+00 3.333333e-02 0.000000e+00
2.341772e+00 3.333333e-02 0.000000e+00
2.373418e+00 3.333333e-02 0.000000e+00
2.405063e+00 3.333333e-02 0.000000e+00
2.436709e+00 3.333333e-02 0.000000e+00
2.468354e+00 3.333333e-02 0.000000e+00
2.500000e+00 3.333333e-02 0.000000e+00
2.531646e+00 3.333333e-02 0.000000e+00
2.563291e+00 3.333333e-02 0.000000e+00
2.594937e+00 3.333333e-02 0.000000e+00
2.626582e+00 3.333333e-02 0.000000e+00
2.658228e+00 3.333333e-02 0.000000e+00
2.689873e+00 3.333333e-02 0.000000e+00
2.721519e+00 3.333333e-02 0.000000e+00
2.753165e+00 3.333333e-02 0.000000e+00
2.784810e+00 3.333333e-02 0.000000e+00
2.816456e+00 3.333333e-02 0.000000e+00
2.848101e+00 3.333333e-02 0.000000e+00
2.879747e+00 3.333333e-02 0.000000e+00
[...]
<PointData>
<DataArray Name="Velocity" type="Float64" format="ascii" NumberOfComponents="3">
0.000000e+00 0.000000e+00 0
0.000000e+00 0.000000e+00 0
0.000000e+00 0.000000e+00 0
0.000000e+00 0.000000e+00 0
0.000000e+00 0.000000e+00 0
0.000000e+00 0.000000e+00 0
0.000000e+00 0.000000e+00 0
0.000000e+00 0.000000e+00 0
0.000000e+00 0.000000e+00 0
0.000000e+00 0.000000e+00 0
0.000000e+00 0.000000e+00 0
0.000000e+00 0.000000e+00 0
0.000000e+00 0.000000e+00 0
0.000000e+00 0.000000e+00 0
0.000000e+00 0.000000e+00 0
0.000000e+00 0.000000e+00 0
0.000000e+00 0.000000e+00 0
0.000000e+00 0.000000e+00 0
0.000000e+00 0.000000e+00 0
1.745243e-17 0.000000e+00 0
0.000000e+00 0.000000e+00 0
0.000000e+00 0.000000e+00 0
0.000000e+00 0.000000e+00 0
-1.788897e-17 0.000000e+00 0
0.000000e+00 0.000000e+00 0
0.000000e+00 0.000000e+00 0
0.000000e+00 0.000000e+00 0
2.830076e-17 0.000000e+00 0
0.000000e+00 0.000000e+00 0
0.000000e+00 0.000000e+00 0
0.000000e+00 0.000000e+00 0
-2.132752e-17 0.000000e+00 0
0.000000e+00 0.000000e+00 0
0.000000e+00 0.000000e+00 0
0.000000e+00 0.000000e+00 0
0.000000e+00 0.000000e+00 0
0.000000e+00 0.000000e+00 0
0.000000e+00 0.000000e+00 0
-1.541063e-18 0.000000e+00 0
0.000000e+00 0.000000e+00 0
0.000000e+00 0.000000e+00 0
0.000000e+00 0.000000e+00 0
0.000000e+00 0.000000e+00 0
0.000000e+00 0.000000e+00 0
0.000000e+00 0.000000e+00 0
0.000000e+00 0.000000e+00 0
2.337611e-18 0.000000e+00 0
0.000000e+00 0.000000e+00 0
0.000000e+00 0.000000e+00 0
0.000000e+00 0.000000e+00 0
0.000000e+00 0.000000e+00 0
0.000000e+00 0.000000e+00 0
0.000000e+00 0.000000e+00 0
0.000000e+00 0.000000e+00 0
-1.260142e-17 0.000000e+00 0
0.000000e+00 0.000000e+00 0
0.000000e+00 0.000000e+00 0
0.000000e+00 0.000000e+00 0
0.000000e+00 0.000000e+00 0
0.000000e+00 0.000000e+00 0
0.000000e+00 0.000000e+00 0
0.000000e+00 0.000000e+00 0
-9.624194e-18 0.000000e+00 0
0.000000e+00 0.000000e+00 0
0.000000e+00 0.000000e+00 0
0.000000e+00 0.000000e+00 0
0.000000e+00 0.000000e+00 0
0.000000e+00 0.000000e+00 0
0.000000e+00 0.000000e+00 0
0.000000e+00 0.000000e+00 0
0.000000e+00 0.000000e+00 0
0.000000e+00 0.000000e+00 0
0.000000e+00 0.000000e+00 0
0.000000e+00 0.000000e+00 0
0.000000e+00 0.000000e+00 0
0.000000e+00 0.000000e+00 0
0.000000e+00 0.000000e+00 0
0.000000e+00 0.000000e+00 0
0.000000e+00 0.000000e+00 0
0.000000e+00 0.000000e+00 0
0.000000e+00 0.000000e+00 0
0.000000e+00 0.000000e+00 0
0.000000e+00 0.000000e+00 0
0.000000e+00 0.000000e+00 0
0.000000e+00 0.000000e+00 0
0.000000e+00 0.000000e+00 0
0.000000e+00 0.000000e+00 0
0.000000e+00 0.000000e+00 0
0.000000e+00 0.000000e+00 0
0.000000e+00 0.000000e+00 0
0.000000e+00 0.000000e+00 0
0.000000e+00 0.000000e+00 0
0.000000e+00 0.000000e+00 0
0.000000e+00 0.000000e+00 0
0.000000e+00 0.000000e+00 0
0.000000e+00 0.000000e+00 0
0.000000e+00 0.000000e+00 0
0.000000e+00 0.000000e+00 0
0.000000e+00 0.000000e+00 0
0.000000e+00 0.000000e+00 0
0.000000e+00 0.000000e+00 0
0.000000e+00 0.000000e+00 0
0.000000e+00 0.000000e+00 0
0.000000e+00 0.000000e+00 0
0.000000e+00 0.000000e+00 0
0.000000e+00 0.000000e+00 0
0.000000e+00 0.000000e+00 0
0.000000e+00 0.000000e+00 0
0.000000e+00 0.000000e+00 0
0.000000e+00 0.000000e+00 0
0.000000e+00 0.000000e+00 0
0.000000e+00 0.000000e+00 0
0.000000e+00 0.000000e+00 0
0.000000e+00 0.000000e+00 0
0.000000e+00 0.000000e+00 0
0.000000e+00 0.000000e+00 0
0.000000e+00 0.000000e+00 0
0.000000e+00 0.000000e+00 0
0.000000e+00 0.000000e+00 0
0.000000e+00 0.000000e+00 0
0.000000e+00 0.000000e+00 0
0.000000e+00 0.000000e+00 0
0.000000e+00 0.000000e+00 0
0.000000e+00 0.000000e+00 0
0.000000e+00 0.000000e+00 0
0.000000e+00 0.000000e+00 0
0.000000e+00 0.000000e+00 0
0.000000e+00 0.000000e+00 0
0.000000e+00 0.000000e+00 0
0.000000e+00 0.000000e+00 0
0.000000e+00 0.000000e+00 0
0.000000e+00 0.000000e+00 0
0.000000e+00 0.000000e+00 0
0.000000e+00 0.000000e+00 0
0.000000e+00 0.000000e+00 0
0.000000e+00 0.000000e+00 0
0.000000e+00 0.000000e+00 0
0.000000e+00 0.000000e+00 0
0.000000e+00 0.000000e+00 0
0.000000e+00 0.000000e+00 0
0.000000e+00 0.000000e+00 0
0.000000e+00 0.000000e+00 0
0.000000e+00 0.000000e+00 0
0.000000e+00 0.000000e+00 0
0.000000e+00 0.000000e+00 0
0.000000e+00 0.000000e+00 0
0.000000e+00 0.000000e+00 0
0.000000e+00 0.000000e+00 0
0.000000e+00 0.000000e+00 0
0.000000e+00 0.000000e+00 0
0.000000e+00 0.000000e+00 0
0.000000e+00 0.000000e+00 0
0.000000e+00 0.000000e+00 0
0.000000e+00 0.000000e+00 0
0.000000e+00 0.000000e+00 0
0.000000e+00 0.000000e+00 0
0.000000e+00 0.000000e+00 0
0.000000e+00 0.000000e+00 0
0.000000e+00 0.000000e+00 0
1.709425e+00 -4.885548e-05 0
1.709425e+00 -5.227716e-05 0
1.709469e+00 -4.731521e-05 0
1.709497e+00 -2.319856e-05 0
1.709499e+00 1.225814e-05 0
1.709465e+00 5.755186e-05 0
1.709382e+00 1.155658e-04 0
1.709237e+00 1.882569e-04 0
1.709015e+00 2.775508e-04 0
1.708700e+00 3.855365e-04 0
1.708272e+00 5.145494e-04 0
1.707711e+00 6.672625e-04 0
1.706992e+00 8.467149e-04 0
1.706089e+00 1.056321e-03 0
1.704970e+00 1.299925e-03 0
1.703603e+00 1.581893e-03 0
1.701947e+00 1.907223e-03 0
1.699960e+00 2.281679e-03 0
1.697591e+00 2.712062e-03 0
1.694784e+00 3.206480e-03 0
1.691472e+00 3.774656e-03 0
1.687582e+00 4.428264e-03 0
1.683025e+00 5.181204e-03 0
1.677699e+00 6.049677e-03 0
1.671486e+00 7.051816e-03 0
1.664247e+00 8.206081e-03 0
1.655826e+00 9.527045e-03 0
1.646053e+00 1.101613e-02 0
1.634760e+00 1.264343e-02 0
1.621821e+00 1.431598e-02 0
1.607235e+00 1.583370e-02 0
1.591260e+00 1.685618e-02 0
1.574597e+00 1.695328e-02 0
1.558471e+00 1.584720e-02 0
1.544236e+00 1.372602e-02 0
1.532587e+00 1.112900e-02 0
1.523571e+00 8.551274e-03 0
1.516879e+00 6.279837e-03 0
1.512084e+00 4.416571e-03 0
1.508769e+00 2.952716e-03 0
1.506582e+00 1.828572e-03 0
1.505245e+00 9.638188e-04 0
1.504550e+00 2.171340e-04 0
1.504338e+00 -4.556467e-04 0
1.504513e+00 -9.888039e-04 0
1.504972e+00 -1.375938e-03 0
1.505627e+00 -1.631691e-03 0
1.506402e+00 -1.775147e-03 0
1.507235e+00 -1.825769e-03 0
1.508074e+00 -1.801618e-03 0
1.508880e+00 -1.718661e-03 0
1.509619e+00 -1.590584e-03 0
1.510268e+00 -1.428886e-03 0
1.510809e+00 -1.243083e-03 0
1.511229e+00 -1.040905e-03 0
1.511521e+00 -8.281429e-04 0
1.511680e+00 -6.089775e-04 0
1.511712e+00 -3.878374e-04 0
1.511633e+00 -1.824098e-04 0
1.511454e+00 -2.339196e-05 0
1.511183e+00 8.942242e-05 0
1.510829e+00 1.804271e-04 0
1.510398e+00 2.609054e-04 0
1.509898e+00 3.345958e-04 0
1.509332e+00 4.030114e-04 0
1.508705e+00 4.669066e-04 0
1.508020e+00 5.267419e-04 0
1.507282e+00 5.828476e-04 0
1.506492e+00 6.354843e-04 0
1.505654e+00 6.848668e-04 0
1.504772e+00 7.311777e-04 0
1.503847e+00 7.745776e-04 0
1.502883e+00 8.152127e-04 0
1.501882e+00 8.532190e-04 0
1.500845e+00 8.887247e-04 0
1.499777e+00 9.218522e-04 0
1.498677e+00 9.527196e-04 0
1.497549e+00 9.814419e-04 0
1.496395e+00 1.008131e-03 0
1.495216e+00 1.032894e-03 0
1.494013e+00 1.055832e-03 0
1.492790e+00 1.077042e-03 0
1.491546e+00 1.096612e-03 0
1.490284e+00 1.114625e-03 0
1.489005e+00 1.131157e-03 0
1.487710e+00 1.146281e-03 0
1.486401e+00 1.160071e-03 0
1.485078e+00 1.172603e-03 0
1.483743e+00 1.183954e-03 0
1.482397e+00 1.194190e-03 0
1.481041e+00 1.203369e-03 0
1.479676e+00 1.211536e-03 0
1.478302e+00 1.218736e-03 0
1.476921e+00 1.225019e-03 0
1.475534e+00 1.230441e-03 0
1.474140e+00 1.235054e-03 0
1.472742e+00 1.238903e-03 0
1.471339e+00 1.242024e-03 0
1.469932e+00 1.244446e-03 0
1.468523e+00 1.246204e-03 0
1.467110e+00 1.247335e-03 0
1.465696e+00 1.247881e-03 0
1.464280e+00 1.247876e-03 0
1.462864e+00 1.247349e-03 0
1.461447e+00 1.246323e-03 0
1.460029e+00 1.244817e-03 0
1.458613e+00 1.242852e-03 0
1.457197e+00 1.240449e-03 0
1.455782e+00 1.237629e-03 0
1.454369e+00 1.234415e-03 0
1.452958e+00 1.230828e-03 0
1.451550e+00 1.226891e-03 0
1.450144e+00 1.222621e-03 0
1.448741e+00 1.218032e-03 0
1.447341e+00 1.213131e-03 0
1.445945e+00 1.207926e-03 0
1.444552e+00 1.202426e-03 0
1.443164e+00 1.196642e-03 0
1.441780e+00 1.190588e-03 0
1.440401e+00 1.184278e-03 0
1.439027e+00 1.177721e-03 0
1.437657e+00 1.170925e-03 0
1.436294e+00 1.163892e-03 0
1.434935e+00 1.156626e-03 0
1.433583e+00 1.149128e-03 0
1.432236e+00 1.141402e-03 0
1.430896e+00 1.133452e-03 0
1.429562e+00 1.125283e-03 0
1.428235e+00 1.116898e-03 0
1.426915e+00 1.108301e-03 0
1.425602e+00 1.099493e-03 0
1.424296e+00 1.090472e-03 0
1.422997e+00 1.081237e-03 0
1.421707e+00 1.071786e-03 0
1.420424e+00 1.062119e-03 0
1.419150e+00 1.052234e-03 0
1.417884e+00 1.042128e-03 0
1.416626e+00 1.031798e-03 0
1.415377e+00 1.021241e-03 0
1.414138e+00 1.010452e-03 0
1.412908e+00 9.994245e-04 0
1.411687e+00 9.881487e-04 0
1.410476e+00 9.766120e-04 0
1.409275e+00 9.647971e-04 0
1.408084e+00 9.526799e-04 0
1.406904e+00 9.402258e-04 0
1.405735e+00 9.273862e-04 0
1.404578e+00 9.140901e-04 0
1.403432e+00 9.002334e-04 0
1.402299e+00 8.856579e-04 0
1.401180e+00 8.701232e-04 0
1.400074e+00 8.532491e-04 0
1.398984e+00 8.344013e-04 0
1.397913e+00 8.124434e-04 0
1.396862e+00 7.849160e-04 0
1.395839e+00 7.472419e-04 0
1.394851e+00 6.554052e-04 0
1.393915e+00 7.541648e-04 0
1.393915e+00 9.226730e-04 0
2.654736e+00 -9.660015e-05 0
2.654736e+00 -9.388885e-05 0
2.654772e+00 -7.545011e-05 0
2.654797e+00 -3.243339e-05 0
2.654801e+00 3.364153e-05 0
2.654774e+00 1.237117e-04 0
2.654704e+00 2.402301e-04 0
2.654580e+00 3.863571e-04 0
2.654388e+00 5.657445e-04 0
2.654114e+00 7.825572e-04 0
2.653741e+00 1.041567e-03 0
2.653249e+00 1.348183e-03 0
2.652619e+00 1.708487e-03 0
2.651825e+00 2.129302e-03 0
2.650840e+00 2.618329e-03 0
2.649636e+00 3.184314e-03 0
2.648176e+00 3.837260e-03 0
2.646422e+00 4.588789e-03 0
2.644330e+00 5.452593e-03 0
2.641850e+00 6.444974e-03 0
2.638926e+00 7.585490e-03 0
2.635489e+00 8.897638e-03 0
2.631465e+00 1.040953e-02 0
2.626762e+00 1.215430e-02 0
2.621273e+00 1.416963e-02 0
2.614872e+00 1.649511e-02 0
2.607408e+00 1.916485e-02 0
2.598703e+00 2.219023e-02 0
2.588554e+00 2.552384e-02 0
2.576748e+00 2.899226e-02 0
2.563121e+00 3.219128e-02 0
2.547720e+00 3.437898e-02 0
2.531151e+00 3.453766e-02 0
2.515062e+00 3.198007e-02 0
2.501594e+00 2.726469e-02 0
2.491299e+00 2.176756e-02 0
2.483800e+00 1.654578e-02 0
2.478475e+00 1.209967e-02 0
2.474760e+00 8.542091e-03 0
2.472215e+00 5.795053e-03 0
2.470517e+00 3.713069e-03 0
2.469429e+00 2.141109e-03 0
2.468771e+00 9.548680e-04 0
2.468343e+00 3.952269e-05 0
2.468042e+00 -6.672234e-04 0
2.467822e+00 -1.173793e-03 0
2.467650e+00 -1.506778e-03 0
2.467503e+00 -1.693892e-03 0
2.467364e+00 -1.761197e-03 0
2.467217e+00 -1.732008e-03 0
2.467053e+00 -1.626581e-03 0
2.466862e+00 -1.462191e-03 0
2.466638e+00 -1.253416e-03 0
2.466376e+00 -1.012581e-03 0
2.466073e+00 -7.502091e-04 0
2.465726e+00 -4.748368e-04 0
2.465344e+00 -2.008089e-04 0
2.464931e+00 5.001872e-05 0
2.464490e+00 2.720570e-04 0
2.464013e+00 4.739360e-04 0
2.463479e+00 6.582435e-04 0
2.462881e+00 8.259727e-04 0
2.462219e+00 9.800914e-04 0
2.461498e+00 1.123135e-03 0
2.460720e+00 1.256738e-03 0
2.459888e+00 1.381961e-03 0
2.459005e+00 1.499550e-03 0
2.458075e+00 1.610074e-03 0
2.457099e+00 1.713988e-03 0
2.456081e+00 1.811674e-03 0
2.455022e+00 1.903467e-03 0
2.453926e+00 1.989668e-03 0
2.452794e+00 2.070557e-03 0
2.451629e+00 2.146396e-03 0
2.450432e+00 2.217433e-03 0
2.449205e+00 2.283902e-03 0
2.447951e+00 2.346032e-03 0
2.446670e+00 2.404044e-03 0
2.445365e+00 2.458150e-03 0
2.444036e+00 2.508551e-03 0
2.442687e+00 2.555438e-03 0
2.441317e+00 2.598989e-03 0
2.439928e+00 2.639376e-03 0
2.438522e+00 2.676760e-03 0
2.437099e+00 2.711293e-03 0
2.435662e+00 2.743122e-03 0
2.434210e+00 2.772392e-03 0
2.432744e+00 2.799241e-03 0
2.431267e+00 2.823804e-03 0
2.429778e+00 2.846202e-03 0
2.428279e+00 2.866542e-03 0
2.426771e+00 2.884922e-03 0
2.425253e+00 2.901438e-03 0
2.423728e+00 2.916189e-03 0
2.422195e+00 2.929274e-03 0
2.420655e+00 2.940786e-03 0
2.419109e+00 2.950807e-03 0
2.417558e+00 2.959405e-03 0
2.416002e+00 2.966646e-03 0
2.414442e+00 2.972598e-03 0
2.412877e+00 2.977333e-03 0
2.411310e+00 2.980924e-03 0
2.409739e+00 2.983432e-03 0
2.408166e+00 2.984910e-03 0
2.406591e+00 2.985402e-03 0
2.405014e+00 2.984949e-03 0
2.403437e+00 2.983594e-03 0
2.401858e+00 2.981381e-03 0
2.400278e+00 2.978353e-03 0
2.398699e+00 2.974550e-03 0
2.397119e+00 2.970010e-03 0
2.395541e+00 2.964768e-03 0
2.393962e+00 2.958853e-03 0
2.392385e+00 2.952291e-03 0
2.390809e+00 2.945103e-03 0
2.389235e+00 2.937307e-03 0
2.387662e+00 2.928925e-03 0
2.386092e+00 2.919977e-03 0
2.384523e+00 2.910487e-03 0
2.382958e+00 2.900475e-03 0
2.381395e+00 2.889956e-03 0
2.379835e+00 2.878942e-03 0
2.378278e+00 2.867441e-03 0
2.376724e+00 2.855460e-03 0
2.375174e+00 2.843004e-03 0
2.373628e+00 2.830082e-03 0
2.372086e+00 2.816701e-03 0
2.370548e+00 2.802868e-03 0
2.369015e+00 2.788588e-03 0
2.367486e+00 2.773863e-03 0
2.365962e+00 2.758692e-03 0
2.364443e+00 2.743075e-03 0
2.362929e+00 2.727010e-03 0
2.361421e+00 2.710493e-03 0
2.359918e+00 2.693522e-03 0
2.358422e+00 2.676092e-03 0
2.356931e+00 2.658199e-03 0
2.355446e+00 2.639835e-03 0
2.353968e+00 2.620993e-03 0
2.352497e+00 2.601660e-03 0
2.351032e+00 2.581824e-03 0
2.349575e+00 2.561463e-03 0
2.348125e+00 2.540554e-03 0
2.346683e+00 2.519059e-03 0
2.345249e+00 2.496932e-03 0
2.343823e+00 2.474103e-03 0
2.342405e+00 2.450476e-03 0
2.340997e+00 2.425910e-03 0
2.339597e+00 2.400197e-03 0
2.338208e+00 2.373028e-03 0
2.336829e+00 2.343936e-03 0
2.335461e+00 2.312191e-03 0
2.334106e+00 2.276616e-03 0
2.332764e+00 2.235230e-03 0
2.331438e+00 2.184573e-03 0
2.330128e+00 2.118280e-03 0
2.328837e+00 2.026577e-03 0
2.327526e+00 2.010843e-03 0
2.327526e+00 2.048719e-03 0
3.150055e+00 -1.464045e-04 0
3.150055e+00 -1.398579e-04 0
3.150099e+00 -1.118022e-04 0
3.150134e+00 -5.345508e-05 0
3.150154e+00 3.633509e-05 0
3.150152e+00 1.597244e-04 0
3.150121e+00 3.199604e-04 0
3.150052e+00 5.212119e-04 0
3.149934e+00 7.684722e-04 0
3.149759e+00 1.067579e-03 0
3.149512e+00 1.425211e-03 0
3.149181e+00 1.848898e-03 0
3.148749e+00 2.347077e-03 0
3.148199e+00 2.929200e-03 0
3.147511e+00 3.605890e-03 0
3.146662e+00 4.389146e-03 0
3.145628e+00 5.292680e-03 0
3.144380e+00 6.332404e-03 0
3.142886e+00 7.527030e-03 0
3.141113e+00 8.898838e-03 0
3.139018e+00 1.047459e-02 0
3.136557e+00 1.228669e-02 0
3.133675e+00 1.437444e-02 0
3.130309e+00 1.678531e-02 0
3.126382e+00 1.957580e-02 0
3.121798e+00 2.281072e-02 0
3.116429e+00 2.655843e-02 0
3.110102e+00 3.087584e-02 0
3.102564e+00 3.576965e-02 0
3.093438e+00 4.110509e-02 0
3.082183e+00 4.640975e-02 0
3.068176e+00 5.053095e-02 0
3.051331e+00 5.135320e-02 0
3.034220e+00 4.698185e-02 0
3.021930e+00 3.875599e-02 0
3.014199e+00 2.987123e-02 0
3.009527e+00 2.205883e-02 0
3.006704e+00 1.580157e-02 0
3.004977e+00 1.101071e-02 0
3.003917e+00 7.422804e-03 0
3.003274e+00 4.763981e-03 0
3.002897e+00 2.802717e-03 0
3.002680e+00 1.361371e-03 0
3.002554e+00 3.123069e-04 0
3.002444e+00 -4.409474e-04 0
3.002322e+00 -9.637270e-04 0
3.002176e+00 -1.296134e-03 0
3.002002e+00 -1.472874e-03 0
3.001799e+00 -1.523660e-03 0
3.001568e+00 -1.473779e-03 0
3.001308e+00 -1.344619e-03 0
3.001021e+00 -1.154167e-03 0
3.000709e+00 -9.175013e-04 0
3.000370e+00 -6.475436e-04 0
3.000007e+00 -3.559877e-04 0
2.999623e+00 -5.990490e-05 0
2.999221e+00 2.290977e-04 0
2.998794e+00 5.115762e-04 0
2.998329e+00 7.839652e-04 0
2.997821e+00 1.041187e-03 0
2.997268e+00 1.282173e-03 0
2.996669e+00 1.507128e-03 0
2.996023e+00 1.717328e-03 0
2.995333e+00 1.914242e-03 0
2.994600e+00 2.099127e-03 0
2.993825e+00 2.272984e-03 0
2.993012e+00 2.436618e-03 0
2.992161e+00 2.590692e-03 0
2.991276e+00 2.735763e-03 0
2.990357e+00 2.872320e-03 0
2.989407e+00 3.000801e-03 0
2.988427e+00 3.121611e-03 0
2.987420e+00 3.235132e-03 0
2.986386e+00 3.341719e-03 0
2.985327e+00 3.441711e-03 0
2.984245e+00 3.535430e-03 0
2.983141e+00 3.623190e-03 0
2.982017e+00 3.705294e-03 0
2.980873e+00 3.782030e-03 0
2.979710e+00 3.853674e-03 0
2.978531e+00 3.920484e-03 0
2.977335e+00 3.982706e-03 0
2.976124e+00 4.040571e-03 0
2.974899e+00 4.094303e-03 0
2.973660e+00 4.144115e-03 0
2.972410e+00 4.190212e-03 0
2.971147e+00 4.232790e-03 0
2.969874e+00 4.272038e-03 0
2.968591e+00 4.308133e-03 0
2.967298e+00 4.341237e-03 0
2.965997e+00 4.371500e-03 0
2.964687e+00 4.399059e-03 0
2.963370e+00 4.424053e-03 0
2.962046e+00 4.446616e-03 0
2.960716e+00 4.466882e-03 0
2.959379e+00 4.484973e-03 0
2.958038e+00 4.500997e-03 0
2.956691e+00 4.515053e-03 0
2.955339e+00 4.527234e-03 0
2.953984e+00 4.537637e-03 0
2.952625e+00 4.546359e-03 0
2.951262e+00 4.553493e-03 0
2.949897e+00 4.559122e-03 0
2.948529e+00 4.563318e-03 0
2.947158e+00 4.566142e-03 0
2.945786e+00 4.567653e-03 0
2.944411e+00 4.567913e-03 0
2.943036e+00 4.566983e-03 0
2.941659e+00 4.564922e-03 0
2.940281e+00 4.561785e-03 0
2.938902e+00 4.557621e-03 0
2.937523e+00 4.552472e-03 0
2.936144e+00 4.546378e-03 0
2.934765e+00 4.539374e-03 0
2.933386e+00 4.531491e-03 0
2.932007e+00 4.522760e-03 0
2.930629e+00 4.513210e-03 0
2.929252e+00 4.502869e-03 0
2.927876e+00 4.491765e-03 0
2.926501e+00 4.479924e-03 0
2.925127e+00 4.467365e-03 0
2.923755e+00 4.454103e-03 0
2.922384e+00 4.440149e-03 0
2.921016e+00 4.425514e-03 0
2.919649e+00 4.410208e-03 0
2.918284e+00 4.394242e-03 0
2.916922e+00 4.377626e-03 0
2.915563e+00 4.360366e-03 0
2.914206e+00 4.342467e-03 0
2.912851e+00 4.323930e-03 0
2.911500e+00 4.304756e-03 0
2.910152e+00 4.284941e-03 0
2.908807e+00 4.264484e-03 0
2.907466e+00 4.243379e-03 0
2.906128e+00 4.221624e-03 0
2.904794e+00 4.199210e-03 0
2.903464e+00 4.176132e-03 0
2.902139e+00 4.152378e-03 0
2.900817e+00 4.127936e-03 0
2.899500e+00 4.102791e-03 0
2.898188e+00 4.076923e-03 0
2.896880e+00 4.050305e-03 0
2.895577e+00 4.022905e-03 0
2.894280e+00 3.994676e-03 0
2.892988e+00 3.965555e-03 0
2.891702e+00 3.935455e-03 0
2.890421e+00 3.904252e-03 0
2.889147e+00 3.871770e-03 0
2.887879e+00 3.837750e-03 0
2.886617e+00 3.801816e-03 0
2.885363e+00 3.763412e-03 0
2.884115e+00 3.721704e-03 0
2.882875e+00 3.675444e-03 0
2.881642e+00 3.622751e-03 0
2.880416e+00 3.560908e-03 0
2.879196e+00 3.486498e-03 0
2.877976e+00 3.396287e-03 0
2.876744e+00 3.310513e-03 0
2.876744e+00 3.274146e-03 0
3.415525e+00 -2.014818e-04 0
3.415525e+00 -1.928535e-04 0
3.415578e+00 -1.588987e-04 0
3.415625e+00 -9.051266e-05 0
3.415663e+00 1.429701e-05 0
3.415689e+00 1.585231e-04 0
3.415697e+00 3.464098e-04 0
3.415682e+00 5.829300e-04 0
3.415638e+00 8.741484e-04 0
3.415557e+00 1.227151e-03 0
3.415430e+00 1.650003e-03 0
3.415250e+00 2.151766e-03 0
3.415003e+00 2.742550e-03 0
3.414678e+00 3.433598e-03 0
3.414262e+00 4.237435e-03 0
3.413738e+00 5.168106e-03 0
3.413090e+00 6.241571e-03 0
3.412300e+00 7.476242e-03 0
3.411347e+00 8.893668e-03 0
3.410209e+00 1.051942e-02 0
3.408863e+00 1.238432e-02 0
3.407281e+00 1.452594e-02 0
3.405433e+00 1.699061e-02 0
3.403283e+00 1.983609e-02 0
3.400787e+00 2.313494e-02 0
3.397885e+00 2.697891e-02 0
3.394490e+00 3.148410e-02 0
3.390459e+00 3.679490e-02 0
3.385530e+00 4.307686e-02 0
3.379199e+00 5.046012e-02 0
3.370443e+00 5.880004e-02 0
3.357290e+00 6.687623e-02 0
3.336702e+00 7.030519e-02 0
3.312435e+00 6.294981e-02 0
3.300995e+00 4.835357e-02 0
3.296923e+00 3.483138e-02 0
3.295975e+00 2.444057e-02 0
3.296160e+00 1.689221e-02 0
3.296677e+00 1.147772e-02 0
3.297232e+00 7.589467e-03 0
3.297729e+00 4.787520e-03 0
3.298139e+00 2.766637e-03 0
3.298456e+00 1.315697e-03 0
3.298680e+00 2.878366e-04 0
3.298817e+00 -4.226972e-04 0
3.298869e+00 -8.912820e-04 0
3.298842e+00 -1.169583e-03 0
3.298747e+00 -1.296589e-03 0
3.298594e+00 -1.303206e-03 0
3.298390e+00 -1.214593e-03 0
3.298144e+00 -1.051505e-03 0
3.297862e+00 -8.311278e-04 0
3.297550e+00 -5.674352e-04 0
3.297212e+00 -2.730937e-04 0
3.296852e+00 3.661427e-05 0
3.296470e+00 3.530660e-04 0
3.296063e+00 6.727674e-04 0
3.295626e+00 9.891735e-04 0
3.295161e+00 1.296804e-03 0
3.294665e+00 1.591712e-03 0
3.294137e+00 1.871974e-03 0
3.293576e+00 2.136980e-03 0
3.292983e+00 2.387010e-03 0
3.292356e+00 2.622764e-03 0
3.291698e+00 2.845057e-03 0
3.291010e+00 3.054686e-03 0
3.290292e+00 3.252380e-03 0
3.289547e+00 3.438795e-03 0
3.288775e+00 3.614518e-03 0
3.287978e+00 3.780087e-03 0
3.287158e+00 3.936001e-03 0
3.286316e+00 4.082734e-03 0