<?xml version="1.0"?>
<VTKFile type="StructuredGrid">
<StructuredGrid WholeExtent="0 158 0 30 0 0 ">
<Piece Extent="0 158 0 30 0 0 ">
<Points>
<DataArray type="Float64" format="ascii" NumberOfComponents="3">
0.000000e+00 0.000000e+00 0.000000e+00
3.164557e-02 0.000000e+00 0.000000e+00
6.329114e-02 0.000000e+00 0.000000e+00
9.493671e-02 0.000000e+00 0.000000e+00
1.265823e-01 0.000000e+00 0.000000e+00
1.582278e-01 0.000000e+00 0.000000e+00
1.898734e-01 0.000000e+00 0.000000e+00
2.215190e-01 0.000000e+00 0.000000e+00
2.531646e-01 0.000000e+00 0.000000e+00
2.848101e-01 0.000000e+00 0.000000e+00
3.164557e-01 0.000000e+00 0.000000e+00
3.481013e-01 0.000000e+00 0.000000e+00
3.797468e-01 0.000000e+00 0.000000e+00
4.113924e-01 0.000000e+00 0.000000e+00
4.430380e-01 0.000000e+00 0.000000e+00
4.746835e-01 0.000000e+00 0.000000e+00
5.063291e-01 0.000000e+00 0.000000e+00
5.379747e-01 0.000000e+00 0.000000e+00
5.696203e-01 0.000000e+00 0.000000e+00
6.012658e-01 0.000000e+00 0.000000e+00
6.329114e-01 0.000000e+00 0.000000e+00
6.645570e-01 0.000000e+00 0.000000e+00
6.962025e-01 0.000000e+00 0.000000e+00
7.278481e-01 0.000000e+00 0.000000e+00
7.594937e-01 0.000000e+00 0.000000e+00
7.911392e-01 0.000000e+00 0.000000e+00
8.227848e-01 0.000000e+00 0.000000e+00
8.544304e-01 0.000000e+00 0.000000e+00
8.860759e-01 0.000000e+00 0.000000e+00
9.177215e-01 0.000000e+00 0.000000e+00
9.493671e-01 0.000000e+00 0.000000e+00
9.810127e-01 0.000000e+00 0.000000e+00
1.012658e+00 0.000000e+00 0.000000e+00
1.044304e+00 0.000000e+00 0.000000e+00
1.075949e+00 0.000000e+00 0.000000e+00
1.107595e+00 0.000000e+00 0.000000e+00
1.139241e+00 0.000000e+00 0.000000e+00
1.170886e+00 0.000000e+00 0.000000e+00
1.202532e+00 0.000000e+00 0.000000e+00
1.234177e+00 0.000000e+00 0.000000e+00
1.265823e+00 0.000000e+00 0.000000e+00
1.297468e+00 0.000000e+00 0.000000e+00
1.329114e+00 0.000000e+00 0.000000e+00
1.360759e+00 0.000000e+00 0.000000e+00
1.392405e+00 0.000000e+00 0.000000e+00
1.424051e+00 0.000000e+00 0.000000e+00
1.455696e+00 0.000000e+00 0.000000e+00
1.487342e+00 0.000000e+00 0.000000e+00
1.518987e+00 0.000000e+00 0.000000e+00
1.550633e+00 0.000000e+00 0.000000e+00
1.582278e+00 0.000000e+00 0.000000e+00
1.613924e+00 0.000000e+00 0.000000e+00
1.645570e+00 0.000000e+00 0.000000e+00
1.677215e+00 0.000000e+00 0.000000e+00
1.708861e+00 0.000000e+00 0.000000e+00
1.740506e+00 0.000000e+00 0.000000e+00
1.772152e+00 0.000000e+00 0.000000e+00
1.803797e+00 0.000000e+00 0.000000e+00
1.835443e+00 0.000000e+00 0.000000e+00
1.867089e+00 0.000000e+00 0.000000e+00
1.898734e+00 0.000000e+00 0.000000e+00
1.930380e+00 0.000000e+00 0.000000e+00
1.962025e+00 0.000000e+00 0.000000e+00
1.993671e+00 0.000000e+00 0.000000e+00
2.025316e+00 0.000000e+00 0.000000e+00
2.056962e+00 0.000000e+00 0.000000e+00
2.088608e+00 0.000000e+00 0.000000e+00
2.120253e+00 0.000000e+00 0.000000e+00
2.151899e+00 0.000000e+00 0.000000e+00
2.183544e+00 0.000000e+00 0.000000e+00
2.215190e+00 0.000000e+00 0.000000e+00
2.246835e+00 0.000000e+00 0.000000e+00
2.278481e+00 0.000000e+00 0.000000e+00
2.310127e+00 0.000000e+00 0.000000e+00
2.341772e+00 0.000000e+00 0.000000e+00
2.373418e+00 0.000000e+00 0.000000e+00
2.405063e+00 0.000000e+00 0.000000e+00
2.436709e+00 0.000000e+00 0.000000e+00
2.468354e+00 0.000000e+00 0.000000e+00
2.500000e+00 0.000000e+00 0.000000e+00
2.531646e+00 0.000000e+00 0.000000e+00
2.563291e+00 0.000000e+00 0.000000e+00
2.594937e+00 0.000000e+00 0.000000e+00
2.626582e+00 0.000000e+00 0.000000e+00
2.658228e+00 0.000000e+00 0.000000e+00
2.689873e+00 0.000000e+00 0.000000e+00
2.721519e+00 0.000000e+00 0.000000e+00
2.753165e+00 0.000000e+00 0.000000e+00
2.784810e+00 0.000000e+00 0.000000e+00
2.816456e+00 0.000000e+00 0.000000e+00
2.848101e+00 0.000000e+00 0.000000e+00
2.879747e+00 0.000000e+00 0.000000e+00
2.911392e+00 0.000000e+00 0.000000e+00
2.943038e+00 0.000000e+00 0.000000e+00
2.974684e+00 0.000000e+00 0.000000e+00
3.006329e+00 0.000000e+00 0.000000e+00
3.037975e+00 0.000000e+00 0.000000e+00
3.069620e+00 0.000000e+00 0.000000e+00
3.101266e+00 0.000000e+00 0.000000e+00
3.132911e+00 0.000000e+00 0.000000e+00
3.164557e+00 0.000000e+00 0.000000e+00
3.196203e+00 0.000000e+00 0.000000e+00
3.227848e+00 0.000000e+00 0.000000e+00
3.259494e+00 0.000000e+00 0.000000e+00
3.291139e+00 0.000000e+00 0.000000e+00
3.322785e+00 0.000000e+00 0.000000e+00
3.354430e+00 0.000000e+00 0.000000e+00
3.386076e+00 0.000000e+00 0.000000e+00
3.417722e+00 0.000000e+00 0.000000e+00
3.449367e+00 0.000000e+00 0.000000e+00
3.481013e+00 0.000000e+00 0.000000e+00
3.512658e+00 0.000000e+00 0.000000e+00
3.544304e+00 0.000000e+00 0.000000e+00
3.575949e+00 0.000000e+00 0.000000e+00
3.607595e+00 0.000000e+00 0.000000e+00
3.639241e+00 0.000000e+00 0.000000e+00
3.670886e+00 0.000000e+00 0.000000e+00
3.702532e+00 0.000000e+00 0.000000e+00
3.734177e+00 0.000000e+00 0.000000e+00
3.765823e+00 0.000000e+00 0.000000e+00
3.797468e+00 0.000000e+00 0.000000e+00
3.829114e+00 0.000000e+00 0.000000e+00
3.860759e+00 0.000000e+00 0.000000e+00
3.892405e+00 0.000000e+00 0.000000e+00
3.924051e+00 0.000000e+00 0.000000e+00
3.955696e+00 0.000000e+00 0.000000e+00
3.987342e+00 0.000000e+00 0.000000e+00
4.018987e+00 0.000000e+00 0.000000e+00
4.050633e+00 0.000000e+00 0.000000e+00
4.082278e+00 0.000000e+00 0.000000e+00
4.113924e+00 0.000000e+00 0.000000e+00
4.145570e+00 0.000000e+00 0.000000e+00
4.177215e+00 0.000000e+00 0.000000e+00
4.208861e+00 0.000000e+00 0.000000e+00
4.240506e+00 0.000000e+00 0.000000e+00
4.272152e+00 0.000000e+00 0.000000e+00
4.303797e+00 0.000000e+00 0.000000e+00
4.335443e+00 0.000000e+00 0.000000e+00
4.367089e+00 0.000000e+00 0.000000e+00
4.398734e+00 0.000000e+00 0.000000e+00
4.430380e+00 0.000000e+00 0.000000e+00
4.462025e+00 0.000000e+00 0.000000e+00
4.493671e+00 0.000000e+00 0.000000e+00
4.525316e+00 0.000000e+00 0.000000e+00
4.556962e+00 0.000000e+00 0.000000e+00
4.588608e+00 0.000000e+00 0.000000e+00
4.620253e+00 0.000000e+00 0.000000e+00
4.651899e+00 0.000000e+00 0.000000e+00
4.683544e+00 0.000000e+00 0.000000e+00
4.715190e+00 0.000000e+00 0.000000e+00
4.746835e+00 0.000000e+00 0.000000e+00
4.778481e+00 0.000000e+00 0.000000e+00
4.810127e+00 0.000000e+00 0.000000e+00
4.841772e+00 0.000000e+00 0.000000e+00
4.873418e+00 0.000000e+00 0.000000e+00
4.905063e+00 0.000000e+00 0.000000e+00
4.936709e+00 0.000000e+00 0.000000e+00
4.968354e+00 0.000000e+00 0.000000e+00
5.000000e+00 0.000000e+00 0.000000e+00
0.000000e+00 3.333333e-02 0.000000e+00
3.164557e-02 3.333333e-02 0.000000e+00
6.329114e-02 3.333333e-02 0.000000e+00
9.493671e-02 3.333333e-02 0.000000e+00
1.265823e-01 3.333333e-02 0.000000e+00
1.582278e-01 3.333333e-02 0.000000e+00
1.898734e-01 3.333333e-02 0.000000e+00
2.215190e-01 3.333333e-02 0.000000e+00
2.531646e-01 3.333333e-02 0.000000e+00
2.848101e-01 3.333333e-02 0.000000e+00
3.164557e-01 3.333333e-02 0.000000e+00
3.481013e-01 3.333333e-02 0.000000e+00
3.797468e-01 3.333333e-02 0.000000e+00
4.113924e-01 3.333333e-02 0.000000e+00
4.430380e-01 3.333333e-02 0.000000e+00
4.746835e-01 3.333333e-02 0.000000e+00
5.063291e-01 3.333333e-02 0.000000e+00
5.379747e-01 3.333333e-02 0.000000e+00
5.696203e-01 3.333333e-02 0.000000e+00
6.012658e-01 3.333333e-02 0.000000e+00
6.329114e-01 3.333333e-02 0.000000e+00
6.645570e-01 3.333333e-02 0.000000e+00
6.962025e-01 3.333333e-02 0.000000e+00
7.278481e-01 3.333333e-02 0.000000e+00
7.594937e-01 3.333333e-02 0.000000e+00
7.911392e-01 3.333333e-02 0.000000e+00
8.227848e-01 3.333333e-02 0.000000e+00
8.544304e-01 3.333333e-02 0.000000e+00
8.860759e-01 3.333333e-02 0.000000e+00
9.177215e-01 3.333333e-02 0.000000e+00
9.493671e-01 3.333333e-02 0.000000e+00
9.810127e-01 3.333333e-02 0.000000e+00
1.012658e+00 3.333333e-02 0.000000e+00
1.044304e+00 3.333333e-02 0.000000e+00
1.075949e+00 3.333333e-02 0.000000e+00
1.107595e+00 3.333333e-02 0.000000e+00
1.139241e+00 3.333333e-02 0.000000e+00
1.170886e+00 3.333333e-02 0.000000e+00
1.202532e+00 3.333333e-02 0.000000e+00
1.234177e+00 3.333333e-02 0.000000e+00
1.265823e+00 3.333333e-02 0.000000e+00
1.297468e+00 3.333333e-02 0.000000e+00
1.329114e+00 3.333333e-02 0.000000e+00
1.360759e+00 3.333333e-02 0.000000e+00
1.392405e+00 3.333333e-02 0.000000e+00
1.424051e+00 3.333333e-02 0.000000e+00
1.455696e+00 3.333333e-02 0.000000e+00
1.487342e+00 3.333333e-02 0.000000e+00
1.518987e+00 3.333333e-02 0.000000e+00
1.550633e+00 3.333333e-02 0.000000e+00
1.582278e+00 3.333333e-02 0.000000e+00
1.613924e+00 3.333333e-02 0.000000e+00
1.645570e+00 3.333333e-02 0.000000e+00
1.677215e+00 3.333333e-02 0.000000e+00
1.708861e+00 3.333333e-02 0.000000e+00
1.740506e+00 3.333333e-02 0.000000e+00
1.772152e+00 3.333333e-02 0.000000e+00
1.803797e+00 3.333333e-02 0.000000e+00
1.835443e+00 3.333333e-02 0.000000e+00
1.867089e+00 3.333333e-02 0.000000e+00
1.898734e+00 3.333333e-02 0.000000e+00
1.930380e+00 3.333333e-02 0.000000e+00
1.962025e+00 3.333333e-02 0.000000e+00
1.993671e+00 3.333333e-02 0.000000e+00
2.025316e+00 3.333333e-02 0.000000e+00
2.056962e+00 3.333333e-02 0.000000e+00
2.088608e+00 3.333333e-02 0.000000e+00
2.120253e+00 3.333333e-02 0.000000e+00
2.151899e+00 3.333333e-02 0.000000e+00
2.183544e+00 3.333333e-02 0.000000e+00
2.215190e+00 3.333333e-02 0.000000e+00
2.246835e+00 3.333333e-02 0.000000e+00
2.278481e+00 3.333333e-02 0.000000e+00
2.310127e+00 3.333333e-02 0.000000e+00
2.341772e+00 3.333333e-02 0.000000e+00
2.373418e+00 3.333333e-02 0.000000e+00
2.405063e+00 3.333333e-02 0.000000e+00
2.436709e+00 3.333333e-02 0.000000e+00
2.468354e+00 3.333333e-02 0.000000e+00
2.500000e+00 3.333333e-02 0.000000e+00
2.531646e+00 3.333333e-02 0.000000e+00
2.563291e+00 3.333333e-02 0.000000e+00
2.594937e+00 3.333333e-02 0.000000e+00
2.626582e+00 3.333333e-02 0.000000e+00
2.658228e+00 3.333333e-02 0.000000e+00
2.689873e+00 3.333333e-02 0.000000e+00
2.721519e+00 3.333333e-02 0.000000e+00
2.753165e+00 3.333333e-02 0.000000e+00
2.784810e+00 3.333333e-02 0.000000e+00
2.816456e+00 3.333333e-02 0.000000e+00
2.848101e+00 3.333333e-02 0.000000e+00
2.879747e+00 3.333333e-02 0.000000e+00
[...]
<PointData>
<DataArray Name="Velocity" type="Float64" format="ascii" NumberOfComponents="3">
0.000000e+00 0.000000e+00 0
0.000000e+00 0.000000e+00 0
0.000000e+00 0.000000e+00 0
0.000000e+00 0.000000e+00 0
0.000000e+00 0.000000e+00 0
0.000000e+00 0.000000e+00 0
0.000000e+00 0.000000e+00 0
0.000000e+00 0.000000e+00 0
0.000000e+00 0.000000e+00 0
0.000000e+00 0.000000e+00 0
0.000000e+00 0.000000e+00 0
0.000000e+00 0.000000e+00 0
0.000000e+00 0.000000e+00 0
0.000000e+00 0.000000e+00 0
0.000000e+00 0.000000e+00 0
0.000000e+00 0.000000e+00 0
0.000000e+00 0.000000e+00 0
0.000000e+00 0.000000e+00 0
0.000000e+00 0.000000e+00 0
-3.422861e-17 0.000000e+00 0
0.000000e+00 0.000000e+00 0
0.000000e+00 0.000000e+00 0
0.000000e+00 0.000000e+00 0
4.627525e-17 0.000000e+00 0
0.000000e+00 0.000000e+00 0
0.000000e+00 0.000000e+00 0
0.000000e+00 0.000000e+00 0
-9.036491e-18 0.000000e+00 0
0.000000e+00 0.000000e+00 0
0.000000e+00 0.000000e+00 0
0.000000e+00 0.000000e+00 0
1.293025e-17 0.000000e+00 0
0.000000e+00 0.000000e+00 0
0.000000e+00 0.000000e+00 0
0.000000e+00 0.000000e+00 0
0.000000e+00 0.000000e+00 0
0.000000e+00 0.000000e+00 0
0.000000e+00 0.000000e+00 0
4.559773e-17 0.000000e+00 0
0.000000e+00 0.000000e+00 0
0.000000e+00 0.000000e+00 0
0.000000e+00 0.000000e+00 0
0.000000e+00 0.000000e+00 0
0.000000e+00 0.000000e+00 0
0.000000e+00 0.000000e+00 0
0.000000e+00 0.000000e+00 0
4.075442e-17 0.000000e+00 0
0.000000e+00 0.000000e+00 0
0.000000e+00 0.000000e+00 0
0.000000e+00 0.000000e+00 0
0.000000e+00 0.000000e+00 0
0.000000e+00 0.000000e+00 0
0.000000e+00 0.000000e+00 0
0.000000e+00 0.000000e+00 0
-4.291707e-17 0.000000e+00 0
0.000000e+00 0.000000e+00 0
0.000000e+00 0.000000e+00 0
0.000000e+00 0.000000e+00 0
0.000000e+00 0.000000e+00 0
0.000000e+00 0.000000e+00 0
0.000000e+00 0.000000e+00 0
0.000000e+00 0.000000e+00 0
-4.253152e-17 0.000000e+00 0
0.000000e+00 0.000000e+00 0
0.000000e+00 0.000000e+00 0
0.000000e+00 0.000000e+00 0
0.000000e+00 0.000000e+00 0
0.000000e+00 0.000000e+00 0
0.000000e+00 0.000000e+00 0
0.000000e+00 0.000000e+00 0
0.000000e+00 0.000000e+00 0
0.000000e+00 0.000000e+00 0
0.000000e+00 0.000000e+00 0
0.000000e+00 0.000000e+00 0
0.000000e+00 0.000000e+00 0
0.000000e+00 0.000000e+00 0
0.000000e+00 0.000000e+00 0
0.000000e+00 0.000000e+00 0
0.000000e+00 0.000000e+00 0
0.000000e+00 0.000000e+00 0
0.000000e+00 0.000000e+00 0
0.000000e+00 0.000000e+00 0
0.000000e+00 0.000000e+00 0
0.000000e+00 0.000000e+00 0
0.000000e+00 0.000000e+00 0
0.000000e+00 0.000000e+00 0
0.000000e+00 0.000000e+00 0
0.000000e+00 0.000000e+00 0
0.000000e+00 0.000000e+00 0
0.000000e+00 0.000000e+00 0
0.000000e+00 0.000000e+00 0
0.000000e+00 0.000000e+00 0
0.000000e+00 0.000000e+00 0
0.000000e+00 0.000000e+00 0
0.000000e+00 0.000000e+00 0
0.000000e+00 0.000000e+00 0
0.000000e+00 0.000000e+00 0
0.000000e+00 0.000000e+00 0
0.000000e+00 0.000000e+00 0
0.000000e+00 0.000000e+00 0
0.000000e+00 0.000000e+00 0
0.000000e+00 0.000000e+00 0
0.000000e+00 0.000000e+00 0
0.000000e+00 0.000000e+00 0
0.000000e+00 0.000000e+00 0
0.000000e+00 0.000000e+00 0
0.000000e+00 0.000000e+00 0
0.000000e+00 0.000000e+00 0
0.000000e+00 0.000000e+00 0
0.000000e+00 0.000000e+00 0
0.000000e+00 0.000000e+00 0
0.000000e+00 0.000000e+00 0
0.000000e+00 0.000000e+00 0
0.000000e+00 0.000000e+00 0
0.000000e+00 0.000000e+00 0
0.000000e+00 0.000000e+00 0
0.000000e+00 0.000000e+00 0
0.000000e+00 0.000000e+00 0
0.000000e+00 0.000000e+00 0
0.000000e+00 0.000000e+00 0
0.000000e+00 0.000000e+00 0
0.000000e+00 0.000000e+00 0
0.000000e+00 0.000000e+00 0
0.000000e+00 0.000000e+00 0
0.000000e+00 0.000000e+00 0
0.000000e+00 0.000000e+00 0
0.000000e+00 0.000000e+00 0
0.000000e+00 0.000000e+00 0
0.000000e+00 0.000000e+00 0
0.000000e+00 0.000000e+00 0
0.000000e+00 0.000000e+00 0
0.000000e+00 0.000000e+00 0
0.000000e+00 0.000000e+00 0
0.000000e+00 0.000000e+00 0
0.000000e+00 0.000000e+00 0
0.000000e+00 0.000000e+00 0
0.000000e+00 0.000000e+00 0
0.000000e+00 0.000000e+00 0
0.000000e+00 0.000000e+00 0
0.000000e+00 0.000000e+00 0
0.000000e+00 0.000000e+00 0
0.000000e+00 0.000000e+00 0
0.000000e+00 0.000000e+00 0
0.000000e+00 0.000000e+00 0
0.000000e+00 0.000000e+00 0
0.000000e+00 0.000000e+00 0
0.000000e+00 0.000000e+00 0
0.000000e+00 0.000000e+00 0
0.000000e+00 0.000000e+00 0
0.000000e+00 0.000000e+00 0
0.000000e+00 0.000000e+00 0
0.000000e+00 0.000000e+00 0
0.000000e+00 0.000000e+00 0
0.000000e+00 0.000000e+00 0
0.000000e+00 0.000000e+00 0
0.000000e+00 0.000000e+00 0
0.000000e+00 0.000000e+00 0
0.000000e+00 0.000000e+00 0
0.000000e+00 0.000000e+00 0
1.906265e+00 -2.944583e-05 0
1.906265e+00 -3.064329e-05 0
1.906289e+00 -2.432388e-05 0
1.906300e+00 -4.312400e-06 0
1.906289e+00 2.524833e-05 0
1.906245e+00 6.489720e-05 0
1.906157e+00 1.162776e-04 0
1.906014e+00 1.807944e-04 0
1.905803e+00 2.599521e-04 0
1.905510e+00 3.554583e-04 0
1.905116e+00 4.692440e-04 0
1.904605e+00 6.035036e-04 0
1.903956e+00 7.607490e-04 0
1.903144e+00 9.438161e-04 0
1.902145e+00 1.155894e-03 0
1.900929e+00 1.400577e-03 0
1.899464e+00 1.681957e-03 0
1.897712e+00 2.004753e-03 0
1.895631e+00 2.374491e-03 0
1.893173e+00 2.797760e-03 0
1.890285e+00 3.282504e-03 0
1.886903e+00 3.838245e-03 0
1.882954e+00 4.476298e-03 0
1.878356e+00 5.209897e-03 0
1.873008e+00 6.053836e-03 0
1.866797e+00 7.023236e-03 0
1.859594e+00 8.130181e-03 0
1.851259e+00 9.376073e-03 0
1.841654e+00 1.073663e-02 0
1.830674e+00 1.213554e-02 0
1.818319e+00 1.340725e-02 0
1.804801e+00 1.426801e-02 0
1.790707e+00 1.435684e-02 0
1.777058e+00 1.343901e-02 0
1.764988e+00 1.167055e-02 0
1.755078e+00 9.502331e-03 0
1.747370e+00 7.348622e-03 0
1.741605e+00 5.449729e-03 0
1.737428e+00 3.891440e-03 0
1.734492e+00 2.667565e-03 0
1.732498e+00 1.730859e-03 0
1.731213e+00 1.021226e-03 0
1.730457e+00 4.721127e-04 0
1.730103e+00 -2.388962e-05 0
1.730053e+00 -4.672096e-04 0
1.730239e+00 -7.935712e-04 0
1.730593e+00 -1.017401e-03 0
1.731055e+00 -1.153227e-03 0
1.731576e+00 -1.215452e-03 0
1.732114e+00 -1.217524e-03 0
1.732636e+00 -1.171463e-03 0
1.733115e+00 -1.087726e-03 0
1.733531e+00 -9.752300e-04 0
1.733869e+00 -8.414162e-04 0
1.734117e+00 -6.921965e-04 0
1.734267e+00 -5.322354e-04 0
1.734319e+00 -3.632669e-04 0
1.734283e+00 -1.974319e-04 0
1.734167e+00 -5.906635e-05 0
1.733977e+00 4.201370e-05 0
1.733719e+00 1.188279e-04 0
1.733399e+00 1.855771e-04 0
1.733021e+00 2.465407e-04 0
1.732588e+00 3.032690e-04 0
1.732105e+00 3.564539e-04 0
1.731573e+00 4.064774e-04 0
1.730996e+00 4.535893e-04 0
1.730377e+00 4.979705e-04 0
1.729717e+00 5.397575e-04 0
1.729020e+00 5.790582e-04 0
1.728286e+00 6.159686e-04 0
1.727519e+00 6.505872e-04 0
1.726720e+00 6.830227e-04 0
1.725892e+00 7.133897e-04 0
1.725036e+00 7.417980e-04 0
1.724153e+00 7.683431e-04 0
1.723247e+00 7.931034e-04 0
1.722317e+00 8.161479e-04 0
1.721367e+00 8.375457e-04 0
1.720397e+00 8.573738e-04 0
1.719408e+00 8.757171e-04 0
1.718402e+00 8.926626e-04 0
1.717380e+00 9.082913e-04 0
1.716344e+00 9.226730e-04 0
1.715295e+00 9.358659e-04 0
1.714233e+00 9.479209e-04 0
1.713159e+00 9.588872e-04 0
1.712075e+00 9.688177e-04 0
1.710982e+00 9.777700e-04 0
1.709880e+00 9.858036e-04 0
1.708770e+00 9.929754e-04 0
1.707653e+00 9.993350e-04 0
1.706530e+00 1.004923e-03 0
1.705401e+00 1.009774e-03 0
1.704267e+00 1.013920e-03 0
1.703129e+00 1.017392e-03 0
1.701987e+00 1.020227e-03 0
1.700842e+00 1.022463e-03 0
1.699694e+00 1.024138e-03 0
1.698545e+00 1.025286e-03 0
1.697393e+00 1.025937e-03 0
1.696241e+00 1.026113e-03 0
1.695088e+00 1.025834e-03 0
1.693934e+00 1.025119e-03 0
1.692781e+00 1.023990e-03 0
1.691628e+00 1.022468e-03 0
1.690475e+00 1.020575e-03 0
1.689324e+00 1.018336e-03 0
1.688175e+00 1.015768e-03 0
1.687027e+00 1.012888e-03 0
1.685881e+00 1.009709e-03 0
1.684738e+00 1.006242e-03 0
1.683597e+00 1.002498e-03 0
1.682459e+00 9.984872e-04 0
1.681324e+00 9.942223e-04 0
1.680192e+00 9.897150e-04 0
1.679064e+00 9.849763e-04 0
1.677940e+00 9.800157e-04 0
1.676819e+00 9.748415e-04 0
1.675703e+00 9.694603e-04 0
1.674592e+00 9.638782e-04 0
1.673484e+00 9.581008e-04 0
1.672382e+00 9.521329e-04 0
1.671285e+00 9.459790e-04 0
1.670192e+00 9.396433e-04 0
1.669105e+00 9.331296e-04 0
1.668024e+00 9.264409e-04 0
1.666948e+00 9.195806e-04 0
1.665878e+00 9.125508e-04 0
1.664814e+00 9.053533e-04 0
1.663756e+00 8.979891e-04 0
1.662704e+00 8.904590e-04 0
1.661659e+00 8.827631e-04 0
1.660620e+00 8.749013e-04 0
1.659589e+00 8.668736e-04 0
1.658564e+00 8.586795e-04 0
1.657546e+00 8.503184e-04 0
1.656536e+00 8.417888e-04 0
1.655533e+00 8.330888e-04 0
1.654537e+00 8.242153e-04 0
1.653550e+00 8.151639e-04 0
1.652571e+00 8.059287e-04 0
1.651599e+00 7.965010e-04 0
1.650636e+00 7.868681e-04 0
1.649682e+00 7.770126e-04 0
1.648737e+00 7.669084e-04 0
1.647800e+00 7.565173e-04 0
1.646873e+00 7.457831e-04 0
1.645956e+00 7.346210e-04 0
1.645049e+00 7.229033e-04 0
1.644152e+00 7.104314e-04 0
1.643268e+00 6.968896e-04 0
1.642396e+00 6.817486e-04 0
1.641539e+00 6.640538e-04 0
1.640699e+00 6.417323e-04 0
1.639881e+00 6.108950e-04 0
1.639093e+00 5.355094e-04 0
1.638347e+00 6.065393e-04 0
1.638347e+00 7.347986e-04 0
3.039392e+00 -5.863274e-05 0
3.039392e+00 -5.521777e-05 0
3.039414e+00 -3.752365e-05 0
3.039424e+00 5.698850e-07 0
3.039414e+00 5.871677e-05 0
3.039375e+00 1.387013e-04 0
3.039297e+00 2.424616e-04 0
3.039170e+00 3.725114e-04 0
3.038982e+00 5.318426e-04 0
3.038720e+00 7.239090e-04 0
3.038369e+00 9.526486e-04 0
3.037912e+00 1.222543e-03 0
3.037332e+00 1.538640e-03 0
3.036606e+00 1.906600e-03 0
3.035713e+00 2.332783e-03 0
3.034625e+00 2.824385e-03 0
3.033313e+00 3.389610e-03 0
3.031744e+00 4.037952e-03 0
3.029880e+00 4.780582e-03 0
3.027680e+00 5.630799e-03 0
3.025095e+00 6.604543e-03 0
3.022068e+00 7.720956e-03 0
3.018536e+00 9.002945e-03 0
3.014423e+00 1.047751e-02 0
3.009640e+00 1.217539e-02 0
3.004082e+00 1.412902e-02 0
2.997623e+00 1.636640e-02 0
2.990116e+00 1.889704e-02 0
2.981395e+00 2.168228e-02 0
2.971284e+00 2.457927e-02 0
2.959652e+00 2.725289e-02 0
2.946539e+00 2.908497e-02 0
2.932459e+00 2.922337e-02 0
2.918790e+00 2.709060e-02 0
2.907324e+00 2.315222e-02 0
2.898522e+00 1.855801e-02 0
2.892071e+00 1.419152e-02 0
2.887452e+00 1.047145e-02 0
2.884193e+00 7.493220e-03 0
2.881925e+00 5.193551e-03 0
2.880375e+00 3.453840e-03 0
2.879345e+00 2.149592e-03 0
2.878691e+00 1.168545e-03 0
2.878293e+00 4.261968e-04 0
2.878007e+00 -1.422957e-04 0
2.877793e+00 -5.683778e-04 0
2.877625e+00 -8.599887e-04 0
2.877481e+00 -1.035934e-03 0
2.877345e+00 -1.115474e-03 0
2.877206e+00 -1.116361e-03 0
2.877053e+00 -1.054283e-03 0
2.876880e+00 -9.428233e-04 0
2.876681e+00 -7.936187e-04 0
2.876450e+00 -6.165469e-04 0
2.876187e+00 -4.197863e-04 0
2.875893e+00 -2.132032e-04 0
2.875574e+00 -1.659615e-05 0
2.875235e+00 1.601208e-04 0
2.874870e+00 3.222189e-04 0
2.874467e+00 4.717333e-04 0
2.874013e+00 6.092262e-04 0
2.873508e+00 7.360023e-04 0
2.872953e+00 8.540815e-04 0
2.872351e+00 9.648128e-04 0
2.871704e+00 1.069037e-03 0
2.871015e+00 1.167310e-03 0
2.870285e+00 1.260027e-03 0
2.869517e+00 1.347493e-03 0
2.868713e+00 1.429955e-03 0
2.867875e+00 1.507625e-03 0
2.867005e+00 1.580704e-03 0
2.866105e+00 1.649395e-03 0
2.865176e+00 1.713901e-03 0
2.864221e+00 1.774425e-03 0
2.863240e+00 1.831155e-03 0
2.862235e+00 1.884264e-03 0
2.861208e+00 1.933906e-03 0
2.860160e+00 1.980232e-03 0
2.859093e+00 2.023395e-03 0
2.858007e+00 2.063551e-03 0
2.856905e+00 2.100856e-03 0
2.855786e+00 2.135461e-03 0
2.854653e+00 2.167507e-03 0
2.853505e+00 2.197121e-03 0
2.852345e+00 2.224418e-03 0
2.851173e+00 2.249509e-03 0
2.849990e+00 2.272501e-03 0
2.848797e+00 2.293503e-03 0
2.847594e+00 2.312623e-03 0
2.846383e+00 2.329966e-03 0
2.845164e+00 2.345631e-03 0
2.843938e+00 2.359704e-03 0
2.842705e+00 2.372266e-03 0
2.841466e+00 2.383386e-03 0
2.840221e+00 2.393136e-03 0
2.838972e+00 2.401585e-03 0
2.837719e+00 2.408805e-03 0
2.836461e+00 2.414863e-03 0
2.835200e+00 2.419826e-03 0
2.833937e+00 2.423753e-03 0
2.832671e+00 2.426694e-03 0
2.831403e+00 2.428698e-03 0
2.830133e+00 2.429808e-03 0
2.828861e+00 2.430065e-03 0
2.827589e+00 2.429514e-03 0
2.826316e+00 2.428196e-03 0
2.825043e+00 2.426151e-03 0
2.823770e+00 2.423419e-03 0
2.822497e+00 2.420033e-03 0
2.821224e+00 2.416021e-03 0
2.819953e+00 2.411410e-03 0
2.818682e+00 2.406224e-03 0
2.817413e+00 2.400486e-03 0
2.816145e+00 2.394220e-03 0
2.814878e+00 2.387448e-03 0
2.813614e+00 2.380191e-03 0
2.812352e+00 2.372468e-03 0
2.811092e+00 2.364296e-03 0
2.809835e+00 2.355688e-03 0
2.808581e+00 2.346659e-03 0
2.807329e+00 2.337221e-03 0
2.806080e+00 2.327384e-03 0
2.804835e+00 2.317158e-03 0
2.803593e+00 2.306552e-03 0
2.802355e+00 2.295573e-03 0
2.801120e+00 2.284227e-03 0
2.799890e+00 2.272521e-03 0
2.798663e+00 2.260458e-03 0
2.797441e+00 2.248044e-03 0
2.796223e+00 2.235281e-03 0
2.795010e+00 2.222171e-03 0
2.793801e+00 2.208713e-03 0
2.792597e+00 2.194910e-03 0
2.791399e+00 2.180760e-03 0
2.790205e+00 2.166262e-03 0
2.789017e+00 2.151416e-03 0
2.787834e+00 2.136219e-03 0
2.786657e+00 2.120668e-03 0
2.785486e+00 2.104758e-03 0
2.784321e+00 2.088483e-03 0
2.783162e+00 2.071833e-03 0
2.782009e+00 2.054797e-03 0
2.780863e+00 2.037356e-03 0
2.779723e+00 2.019486e-03 0
2.778590e+00 2.001151e-03 0
2.777465e+00 1.982299e-03 0
2.776347e+00 1.962854e-03 0
2.775236e+00 1.942705e-03 0
2.774134e+00 1.921684e-03 0
2.773039e+00 1.899541e-03 0
2.771954e+00 1.875891e-03 0
2.770878e+00 1.850128e-03 0
2.769812e+00 1.821271e-03 0
2.768757e+00 1.787648e-03 0
2.767716e+00 1.746319e-03 0
2.766688e+00 1.691807e-03 0
2.765675e+00 1.615412e-03 0
2.764647e+00 1.597019e-03 0
2.764647e+00 1.623572e-03 0
3.678760e+00 -9.015025e-05 0
3.678760e+00 -8.371453e-05 0
3.678788e+00 -5.753627e-05 0
3.678807e+00 -4.556716e-06 0
3.678811e+00 7.644700e-05 0
3.678794e+00 1.877001e-04 0
3.678750e+00 3.319725e-04 0
3.678669e+00 5.127846e-04 0
3.678545e+00 7.343436e-04 0
3.678366e+00 1.001525e-03 0
3.678122e+00 1.319912e-03 0
3.677800e+00 1.695809e-03 0
3.677386e+00 2.136267e-03 0
3.676865e+00 2.649168e-03 0
3.676219e+00 3.243341e-03 0
3.675428e+00 3.928717e-03 0
3.674471e+00 4.716615e-03 0
3.673322e+00 5.620138e-03 0
3.671954e+00 6.654665e-03 0
3.670337e+00 7.838473e-03 0
3.668436e+00 9.193517e-03 0
3.666211e+00 1.074633e-02 0
3.663616e+00 1.252908e-02 0
3.660597e+00 1.458061e-02 0
3.657089e+00 1.694717e-02 0
3.653009e+00 1.968174e-02 0
3.648252e+00 2.284019e-02 0
3.642672e+00 2.646896e-02 0
3.636061e+00 3.057277e-02 0
3.628110e+00 3.503859e-02 0
3.618374e+00 3.947245e-02 0
3.606345e+00 4.291193e-02 0
3.591962e+00 4.358607e-02 0
3.577395e+00 3.991455e-02 0
3.566866e+00 3.301960e-02 0
3.560165e+00 2.556830e-02 0
3.556049e+00 1.900871e-02 0
3.553508e+00 1.374759e-02 0
3.551912e+00 9.713875e-03 0
3.550898e+00 6.689669e-03 0
3.550256e+00 4.447774e-03 0
3.549856e+00 2.795178e-03 0
3.549614e+00 1.580976e-03 0
3.549464e+00 6.963449e-04 0
3.549360e+00 5.870651e-05 0
3.549259e+00 -3.911698e-04 0
3.549145e+00 -6.880263e-04 0
3.549011e+00 -8.585735e-04 0
3.548855e+00 -9.260097e-04 0
3.548677e+00 -9.102746e-04 0
3.548475e+00 -8.284029e-04 0
3.548250e+00 -6.949042e-04 0
3.548002e+00 -5.221963e-04 0
3.547732e+00 -3.209887e-04 0
3.547445e+00 -1.050094e-04 0
3.547141e+00 1.126989e-04 0
3.546819e+00 3.297135e-04 0
3.546469e+00 5.439253e-04 0
3.546085e+00 7.497424e-04 0
3.545663e+00 9.449772e-04 0
3.545204e+00 1.128985e-03 0
3.544707e+00 1.302079e-03 0
3.544172e+00 1.465113e-03 0
3.543601e+00 1.618922e-03 0
3.542995e+00 1.764185e-03 0
3.542355e+00 1.901439e-03 0
3.541685e+00 2.031116e-03 0
3.540984e+00 2.153576e-03 0
3.540255e+00 2.269132e-03 0
3.539499e+00 2.378075e-03 0
3.538717e+00 2.480684e-03 0
3.537912e+00 2.577239e-03 0
3.537084e+00 2.668018e-03 0
3.536235e+00 2.753288e-03 0
3.535366e+00 2.833298e-03 0
3.534478e+00 2.908280e-03 0
3.533573e+00 2.978455e-03 0
3.532651e+00 3.044043e-03 0
3.531713e+00 3.105263e-03 0
3.530760e+00 3.162333e-03 0
3.529794e+00 3.215465e-03 0
3.528815e+00 3.264858e-03 0
3.527824e+00 3.310699e-03 0
3.526822e+00 3.353160e-03 0
3.525810e+00 3.392407e-03 0
3.524787e+00 3.428598e-03 0
3.523756e+00 3.461886e-03 0
3.522716e+00 3.492425e-03 0
3.521669e+00 3.520362e-03 0
3.520615e+00 3.545837e-03 0
3.519554e+00 3.568980e-03 0
3.518486e+00 3.589910e-03 0
3.517414e+00 3.608735e-03 0
3.516336e+00 3.625560e-03 0
3.515253e+00 3.640483e-03 0
3.514167e+00 3.653607e-03 0
3.513076e+00 3.665027e-03 0
3.511982e+00 3.674838e-03 0
3.510885e+00 3.683123e-03 0
3.509785e+00 3.689963e-03 0
3.508683e+00 3.695426e-03 0
3.507579e+00 3.699580e-03 0
3.506473e+00 3.702487e-03 0
3.505365e+00 3.704209e-03 0
3.504256e+00 3.704806e-03 0
3.503146e+00 3.704337e-03 0
3.502036e+00 3.702855e-03 0
3.500925e+00 3.700410e-03 0
3.499813e+00 3.697047e-03 0
3.498702e+00 3.692805e-03 0
3.497591e+00 3.687720e-03 0
3.496480e+00 3.681829e-03 0
3.495370e+00 3.675164e-03 0
3.494260e+00 3.667759e-03 0
3.493151e+00 3.659644e-03 0
3.492043e+00 3.650846e-03 0
3.490937e+00 3.641390e-03 0
3.489832e+00 3.631299e-03 0
3.488728e+00 3.620591e-03 0
3.487626e+00 3.609286e-03 0
3.486526e+00 3.597401e-03 0
3.485428e+00 3.584950e-03 0
3.484332e+00 3.571948e-03 0
3.483238e+00 3.558404e-03 0
3.482146e+00 3.544330e-03 0
3.481057e+00 3.529733e-03 0
3.479971e+00 3.514622e-03 0
3.478887e+00 3.499002e-03 0
3.477806e+00 3.482879e-03 0
3.476729e+00 3.466255e-03 0
3.475654e+00 3.449133e-03 0
3.474583e+00 3.431514e-03 0
3.473515e+00 3.413397e-03 0
3.472450e+00 3.394783e-03 0
3.471389e+00 3.375669e-03 0
3.470332e+00 3.356053e-03 0
3.469279e+00 3.335932e-03 0
3.468229e+00 3.315302e-03 0
3.467184e+00 3.294154e-03 0
3.466144e+00 3.272481e-03 0
3.465107e+00 3.250270e-03 0
3.464075e+00 3.227505e-03 0
3.463048e+00 3.204164e-03 0
3.462026e+00 3.180213e-03 0
3.461009e+00 3.155608e-03 0
3.459996e+00 3.130281e-03 0
3.458990e+00 3.104137e-03 0
3.457988e+00 3.077036e-03 0
3.456992e+00 3.048770e-03 0
3.456002e+00 3.019035e-03 0
3.455018e+00 2.987372e-03 0
3.454041e+00 2.953095e-03 0
3.453069e+00 2.915155e-03 0
3.452104e+00 2.871971e-03 0
3.451146e+00 2.821221e-03 0
3.450191e+00 2.759944e-03 0
3.449237e+00 2.685188e-03 0
3.448273e+00 2.615061e-03 0
3.448273e+00 2.586022e-03 0
4.041166e+00 -1.267217e-04 0
4.041166e+00 -1.185616e-04 0
4.041202e+00 -8.701722e-05 0
4.041232e+00 -2.421464e-05 0
4.041253e+00 7.171075e-05 0
4.041262e+00 2.033475e-04 0
4.041253e+00 3.741920e-04 0
4.041222e+00 5.885759e-04 0
4.041163e+00 8.516499e-04 0
4.041069e+00 1.169399e-03 0
4.040933e+00 1.548636e-03 0
4.040746e+00 1.996990e-03 0
4.040497e+00 2.522962e-03 0
4.040177e+00 3.135986e-03 0
4.039772e+00 3.846517e-03 0
4.039270e+00 4.666264e-03 0
4.038654e+00 5.608495e-03 0
4.037909e+00 6.688462e-03 0
4.037017e+00 7.923979e-03 0
4.035958e+00 9.336187e-03 0
4.034711e+00 1.095050e-02 0
4.033253e+00 1.279784e-02 0
4.031556e+00 1.491636e-02 0
4.029590e+00 1.735349e-02 0
4.027315e+00 2.016874e-02 0
4.024681e+00 2.343734e-02 0
4.021614e+00 2.725433e-02 0
4.017993e+00 3.173751e-02 0
4.013603e+00 3.702140e-02 0
4.008025e+00 4.321019e-02 0
4.000417e+00 5.017863e-02 0
3.989148e+00 5.690524e-02 0
3.971694e+00 5.971746e-02 0
3.951281e+00 5.352529e-02 0
3.941513e+00 4.130031e-02 0
3.937894e+00 2.995160e-02 0
3.936911e+00 2.120415e-02 0
3.936909e+00 1.482905e-02 0
3.937217e+00 1.024201e-02 0
3.937582e+00 6.938666e-03 0
3.937920e+00 4.552050e-03 0
3.938207e+00 2.825576e-03 0
3.938437e+00 1.580847e-03 0
3.938606e+00 6.933785e-04 0
3.938718e+00 7.420801e-05 0
3.938769e+00 -3.414738e-04 0
3.938761e+00 -5.991759e-04 0
3.938699e+00 -7.312753e-04 0
3.938590e+00 -7.630998e-04 0
3.938441e+00 -7.151717e-04 0
3.938255e+00 -6.044489e-04 0
3.938040e+00 -4.450390e-04 0
3.937798e+00 -2.486942e-04 0
3.937535e+00 -2.921266e-05 0
3.937252e+00 2.034049e-04 0
3.936947e+00 4.451747e-04 0
3.936617e+00 6.906563e-04 0
3.936262e+00 9.341226e-04 0
3.935882e+00 1.171133e-03 0
3.935475e+00 1.399043e-03 0
3.935040e+00 1.616540e-03 0
3.934576e+00 1.823223e-03 0
3.934086e+00 2.019246e-03 0
3.933568e+00 2.204993e-03 0
3.933023e+00 2.380903e-03 0
3.932454e+00 2.547403e-03 0
3.931861e+00 2.704892e-03 0
3.931246e+00 2.853736e-03 0
3.930609e+00 2.994279e-03 0
3.929952e+00 3.126859e-03 0
3.929275e+00 3.251811e-03 0
3.928580e+00 3.369469e-03 0