<?xml version="1.0"?>
<VTKFile type="StructuredGrid">
<StructuredGrid WholeExtent="0 158 0 30 0 0 ">
<Piece Extent="0 158 0 30 0 0 ">
<Points>
<DataArray type="Float64" format="ascii" NumberOfComponents="3">
0.000000e+00 0.000000e+00 0.000000e+00
3.164557e-02 0.000000e+00 0.000000e+00
6.329114e-02 0.000000e+00 0.000000e+00
9.493671e-02 0.000000e+00 0.000000e+00
1.265823e-01 0.000000e+00 0.000000e+00
1.582278e-01 0.000000e+00 0.000000e+00
1.898734e-01 0.000000e+00 0.000000e+00
2.215190e-01 0.000000e+00 0.000000e+00
2.531646e-01 0.000000e+00 0.000000e+00
2.848101e-01 0.000000e+00 0.000000e+00
3.164557e-01 0.000000e+00 0.000000e+00
3.481013e-01 0.000000e+00 0.000000e+00
3.797468e-01 0.000000e+00 0.000000e+00
4.113924e-01 0.000000e+00 0.000000e+00
4.430380e-01 0.000000e+00 0.000000e+00
4.746835e-01 0.000000e+00 0.000000e+00
5.063291e-01 0.000000e+00 0.000000e+00
5.379747e-01 0.000000e+00 0.000000e+00
5.696203e-01 0.000000e+00 0.000000e+00
6.012658e-01 0.000000e+00 0.000000e+00
6.329114e-01 0.000000e+00 0.000000e+00
6.645570e-01 0.000000e+00 0.000000e+00
6.962025e-01 0.000000e+00 0.000000e+00
7.278481e-01 0.000000e+00 0.000000e+00
7.594937e-01 0.000000e+00 0.000000e+00
7.911392e-01 0.000000e+00 0.000000e+00
8.227848e-01 0.000000e+00 0.000000e+00
8.544304e-01 0.000000e+00 0.000000e+00
8.860759e-01 0.000000e+00 0.000000e+00
9.177215e-01 0.000000e+00 0.000000e+00
9.493671e-01 0.000000e+00 0.000000e+00
9.810127e-01 0.000000e+00 0.000000e+00
1.012658e+00 0.000000e+00 0.000000e+00
1.044304e+00 0.000000e+00 0.000000e+00
1.075949e+00 0.000000e+00 0.000000e+00
1.107595e+00 0.000000e+00 0.000000e+00
1.139241e+00 0.000000e+00 0.000000e+00
1.170886e+00 0.000000e+00 0.000000e+00
1.202532e+00 0.000000e+00 0.000000e+00
1.234177e+00 0.000000e+00 0.000000e+00
1.265823e+00 0.000000e+00 0.000000e+00
1.297468e+00 0.000000e+00 0.000000e+00
1.329114e+00 0.000000e+00 0.000000e+00
1.360759e+00 0.000000e+00 0.000000e+00
1.392405e+00 0.000000e+00 0.000000e+00
1.424051e+00 0.000000e+00 0.000000e+00
1.455696e+00 0.000000e+00 0.000000e+00
1.487342e+00 0.000000e+00 0.000000e+00
1.518987e+00 0.000000e+00 0.000000e+00
1.550633e+00 0.000000e+00 0.000000e+00
1.582278e+00 0.000000e+00 0.000000e+00
1.613924e+00 0.000000e+00 0.000000e+00
1.645570e+00 0.000000e+00 0.000000e+00
1.677215e+00 0.000000e+00 0.000000e+00
1.708861e+00 0.000000e+00 0.000000e+00
1.740506e+00 0.000000e+00 0.000000e+00
1.772152e+00 0.000000e+00 0.000000e+00
1.803797e+00 0.000000e+00 0.000000e+00
1.835443e+00 0.000000e+00 0.000000e+00
1.867089e+00 0.000000e+00 0.000000e+00
1.898734e+00 0.000000e+00 0.000000e+00
1.930380e+00 0.000000e+00 0.000000e+00
1.962025e+00 0.000000e+00 0.000000e+00
1.993671e+00 0.000000e+00 0.000000e+00
2.025316e+00 0.000000e+00 0.000000e+00
2.056962e+00 0.000000e+00 0.000000e+00
2.088608e+00 0.000000e+00 0.000000e+00
2.120253e+00 0.000000e+00 0.000000e+00
2.151899e+00 0.000000e+00 0.000000e+00
2.183544e+00 0.000000e+00 0.000000e+00
2.215190e+00 0.000000e+00 0.000000e+00
2.246835e+00 0.000000e+00 0.000000e+00
2.278481e+00 0.000000e+00 0.000000e+00
2.310127e+00 0.000000e+00 0.000000e+00
2.341772e+00 0.000000e+00 0.000000e+00
2.373418e+00 0.000000e+00 0.000000e+00
2.405063e+00 0.000000e+00 0.000000e+00
2.436709e+00 0.000000e+00 0.000000e+00
2.468354e+00 0.000000e+00 0.000000e+00
2.500000e+00 0.000000e+00 0.000000e+00
2.531646e+00 0.000000e+00 0.000000e+00
2.563291e+00 0.000000e+00 0.000000e+00
2.594937e+00 0.000000e+00 0.000000e+00
2.626582e+00 0.000000e+00 0.000000e+00
2.658228e+00 0.000000e+00 0.000000e+00
2.689873e+00 0.000000e+00 0.000000e+00
2.721519e+00 0.000000e+00 0.000000e+00
2.753165e+00 0.000000e+00 0.000000e+00
2.784810e+00 0.000000e+00 0.000000e+00
2.816456e+00 0.000000e+00 0.000000e+00
2.848101e+00 0.000000e+00 0.000000e+00
2.879747e+00 0.000000e+00 0.000000e+00
2.911392e+00 0.000000e+00 0.000000e+00
2.943038e+00 0.000000e+00 0.000000e+00
2.974684e+00 0.000000e+00 0.000000e+00
3.006329e+00 0.000000e+00 0.000000e+00
3.037975e+00 0.000000e+00 0.000000e+00
3.069620e+00 0.000000e+00 0.000000e+00
3.101266e+00 0.000000e+00 0.000000e+00
3.132911e+00 0.000000e+00 0.000000e+00
3.164557e+00 0.000000e+00 0.000000e+00
3.196203e+00 0.000000e+00 0.000000e+00
3.227848e+00 0.000000e+00 0.000000e+00
3.259494e+00 0.000000e+00 0.000000e+00
3.291139e+00 0.000000e+00 0.000000e+00
3.322785e+00 0.000000e+00 0.000000e+00
3.354430e+00 0.000000e+00 0.000000e+00
3.386076e+00 0.000000e+00 0.000000e+00
3.417722e+00 0.000000e+00 0.000000e+00
3.449367e+00 0.000000e+00 0.000000e+00
3.481013e+00 0.000000e+00 0.000000e+00
3.512658e+00 0.000000e+00 0.000000e+00
3.544304e+00 0.000000e+00 0.000000e+00
3.575949e+00 0.000000e+00 0.000000e+00
3.607595e+00 0.000000e+00 0.000000e+00
3.639241e+00 0.000000e+00 0.000000e+00
3.670886e+00 0.000000e+00 0.000000e+00
3.702532e+00 0.000000e+00 0.000000e+00
3.734177e+00 0.000000e+00 0.000000e+00
3.765823e+00 0.000000e+00 0.000000e+00
3.797468e+00 0.000000e+00 0.000000e+00
3.829114e+00 0.000000e+00 0.000000e+00
3.860759e+00 0.000000e+00 0.000000e+00
3.892405e+00 0.000000e+00 0.000000e+00
3.924051e+00 0.000000e+00 0.000000e+00
3.955696e+00 0.000000e+00 0.000000e+00
3.987342e+00 0.000000e+00 0.000000e+00
4.018987e+00 0.000000e+00 0.000000e+00
4.050633e+00 0.000000e+00 0.000000e+00
4.082278e+00 0.000000e+00 0.000000e+00
4.113924e+00 0.000000e+00 0.000000e+00
4.145570e+00 0.000000e+00 0.000000e+00
4.177215e+00 0.000000e+00 0.000000e+00
4.208861e+00 0.000000e+00 0.000000e+00
4.240506e+00 0.000000e+00 0.000000e+00
4.272152e+00 0.000000e+00 0.000000e+00
4.303797e+00 0.000000e+00 0.000000e+00
4.335443e+00 0.000000e+00 0.000000e+00
4.367089e+00 0.000000e+00 0.000000e+00
4.398734e+00 0.000000e+00 0.000000e+00
4.430380e+00 0.000000e+00 0.000000e+00
4.462025e+00 0.000000e+00 0.000000e+00
4.493671e+00 0.000000e+00 0.000000e+00
4.525316e+00 0.000000e+00 0.000000e+00
4.556962e+00 0.000000e+00 0.000000e+00
4.588608e+00 0.000000e+00 0.000000e+00
4.620253e+00 0.000000e+00 0.000000e+00
4.651899e+00 0.000000e+00 0.000000e+00
4.683544e+00 0.000000e+00 0.000000e+00
4.715190e+00 0.000000e+00 0.000000e+00
4.746835e+00 0.000000e+00 0.000000e+00
4.778481e+00 0.000000e+00 0.000000e+00
4.810127e+00 0.000000e+00 0.000000e+00
4.841772e+00 0.000000e+00 0.000000e+00
4.873418e+00 0.000000e+00 0.000000e+00
4.905063e+00 0.000000e+00 0.000000e+00
4.936709e+00 0.000000e+00 0.000000e+00
4.968354e+00 0.000000e+00 0.000000e+00
5.000000e+00 0.000000e+00 0.000000e+00
0.000000e+00 3.333333e-02 0.000000e+00
3.164557e-02 3.333333e-02 0.000000e+00
6.329114e-02 3.333333e-02 0.000000e+00
9.493671e-02 3.333333e-02 0.000000e+00
1.265823e-01 3.333333e-02 0.000000e+00
1.582278e-01 3.333333e-02 0.000000e+00
1.898734e-01 3.333333e-02 0.000000e+00
2.215190e-01 3.333333e-02 0.000000e+00
2.531646e-01 3.333333e-02 0.000000e+00
2.848101e-01 3.333333e-02 0.000000e+00
3.164557e-01 3.333333e-02 0.000000e+00
3.481013e-01 3.333333e-02 0.000000e+00
3.797468e-01 3.333333e-02 0.000000e+00
4.113924e-01 3.333333e-02 0.000000e+00
4.430380e-01 3.333333e-02 0.000000e+00
4.746835e-01 3.333333e-02 0.000000e+00
5.063291e-01 3.333333e-02 0.000000e+00
5.379747e-01 3.333333e-02 0.000000e+00
5.696203e-01 3.333333e-02 0.000000e+00
6.012658e-01 3.333333e-02 0.000000e+00
6.329114e-01 3.333333e-02 0.000000e+00
6.645570e-01 3.333333e-02 0.000000e+00
6.962025e-01 3.333333e-02 0.000000e+00
7.278481e-01 3.333333e-02 0.000000e+00
7.594937e-01 3.333333e-02 0.000000e+00
7.911392e-01 3.333333e-02 0.000000e+00
8.227848e-01 3.333333e-02 0.000000e+00
8.544304e-01 3.333333e-02 0.000000e+00
8.860759e-01 3.333333e-02 0.000000e+00
9.177215e-01 3.333333e-02 0.000000e+00
9.493671e-01 3.333333e-02 0.000000e+00
9.810127e-01 3.333333e-02 0.000000e+00
1.012658e+00 3.333333e-02 0.000000e+00
1.044304e+00 3.333333e-02 0.000000e+00
1.075949e+00 3.333333e-02 0.000000e+00
1.107595e+00 3.333333e-02 0.000000e+00
1.139241e+00 3.333333e-02 0.000000e+00
1.170886e+00 3.333333e-02 0.000000e+00
1.202532e+00 3.333333e-02 0.000000e+00
1.234177e+00 3.333333e-02 0.000000e+00
1.265823e+00 3.333333e-02 0.000000e+00
1.297468e+00 3.333333e-02 0.000000e+00
1.329114e+00 3.333333e-02 0.000000e+00
1.360759e+00 3.333333e-02 0.000000e+00
1.392405e+00 3.333333e-02 0.000000e+00
1.424051e+00 3.333333e-02 0.000000e+00
1.455696e+00 3.333333e-02 0.000000e+00
1.487342e+00 3.333333e-02 0.000000e+00
1.518987e+00 3.333333e-02 0.000000e+00
1.550633e+00 3.333333e-02 0.000000e+00
1.582278e+00 3.333333e-02 0.000000e+00
1.613924e+00 3.333333e-02 0.000000e+00
1.645570e+00 3.333333e-02 0.000000e+00
1.677215e+00 3.333333e-02 0.000000e+00
1.708861e+00 3.333333e-02 0.000000e+00
1.740506e+00 3.333333e-02 0.000000e+00
1.772152e+00 3.333333e-02 0.000000e+00
1.803797e+00 3.333333e-02 0.000000e+00
1.835443e+00 3.333333e-02 0.000000e+00
1.867089e+00 3.333333e-02 0.000000e+00
1.898734e+00 3.333333e-02 0.000000e+00
1.930380e+00 3.333333e-02 0.000000e+00
1.962025e+00 3.333333e-02 0.000000e+00
1.993671e+00 3.333333e-02 0.000000e+00
2.025316e+00 3.333333e-02 0.000000e+00
2.056962e+00 3.333333e-02 0.000000e+00
2.088608e+00 3.333333e-02 0.000000e+00
2.120253e+00 3.333333e-02 0.000000e+00
2.151899e+00 3.333333e-02 0.000000e+00
2.183544e+00 3.333333e-02 0.000000e+00
2.215190e+00 3.333333e-02 0.000000e+00
2.246835e+00 3.333333e-02 0.000000e+00
2.278481e+00 3.333333e-02 0.000000e+00
2.310127e+00 3.333333e-02 0.000000e+00
2.341772e+00 3.333333e-02 0.000000e+00
2.373418e+00 3.333333e-02 0.000000e+00
2.405063e+00 3.333333e-02 0.000000e+00
2.436709e+00 3.333333e-02 0.000000e+00
2.468354e+00 3.333333e-02 0.000000e+00
2.500000e+00 3.333333e-02 0.000000e+00
2.531646e+00 3.333333e-02 0.000000e+00
2.563291e+00 3.333333e-02 0.000000e+00
2.594937e+00 3.333333e-02 0.000000e+00
2.626582e+00 3.333333e-02 0.000000e+00
2.658228e+00 3.333333e-02 0.000000e+00
2.689873e+00 3.333333e-02 0.000000e+00
2.721519e+00 3.333333e-02 0.000000e+00
2.753165e+00 3.333333e-02 0.000000e+00
2.784810e+00 3.333333e-02 0.000000e+00
2.816456e+00 3.333333e-02 0.000000e+00
2.848101e+00 3.333333e-02 0.000000e+00
2.879747e+00 3.333333e-02 0.000000e+00
[...]
<PointData>
<DataArray Name="Velocity" type="Float64" format="ascii" NumberOfComponents="3">
0.000000e+00 0.000000e+00 0
0.000000e+00 0.000000e+00 0
0.000000e+00 0.000000e+00 0
0.000000e+00 0.000000e+00 0
0.000000e+00 0.000000e+00 0
0.000000e+00 0.000000e+00 0
0.000000e+00 0.000000e+00 0
0.000000e+00 0.000000e+00 0
0.000000e+00 0.000000e+00 0
0.000000e+00 0.000000e+00 0
0.000000e+00 0.000000e+00 0
0.000000e+00 0.000000e+00 0
0.000000e+00 0.000000e+00 0
0.000000e+00 0.000000e+00 0
0.000000e+00 0.000000e+00 0
0.000000e+00 0.000000e+00 0
0.000000e+00 0.000000e+00 0
0.000000e+00 0.000000e+00 0
0.000000e+00 0.000000e+00 0
3.688381e-19 0.000000e+00 0
0.000000e+00 0.000000e+00 0
0.000000e+00 0.000000e+00 0
0.000000e+00 0.000000e+00 0
-5.046766e-19 0.000000e+00 0
0.000000e+00 0.000000e+00 0
0.000000e+00 0.000000e+00 0
0.000000e+00 0.000000e+00 0
-1.592441e-18 0.000000e+00 0
0.000000e+00 0.000000e+00 0
0.000000e+00 0.000000e+00 0
0.000000e+00 0.000000e+00 0
1.037832e-19 0.000000e+00 0
0.000000e+00 0.000000e+00 0
0.000000e+00 0.000000e+00 0
0.000000e+00 0.000000e+00 0
0.000000e+00 0.000000e+00 0
0.000000e+00 0.000000e+00 0
0.000000e+00 0.000000e+00 0
-4.868124e-18 0.000000e+00 0
0.000000e+00 0.000000e+00 0
0.000000e+00 0.000000e+00 0
0.000000e+00 0.000000e+00 0
0.000000e+00 0.000000e+00 0
0.000000e+00 0.000000e+00 0
0.000000e+00 0.000000e+00 0
0.000000e+00 0.000000e+00 0
1.087538e-18 0.000000e+00 0
0.000000e+00 0.000000e+00 0
0.000000e+00 0.000000e+00 0
0.000000e+00 0.000000e+00 0
0.000000e+00 0.000000e+00 0
0.000000e+00 0.000000e+00 0
0.000000e+00 0.000000e+00 0
0.000000e+00 0.000000e+00 0
7.758501e-19 0.000000e+00 0
0.000000e+00 0.000000e+00 0
0.000000e+00 0.000000e+00 0
0.000000e+00 0.000000e+00 0
0.000000e+00 0.000000e+00 0
0.000000e+00 0.000000e+00 0
0.000000e+00 0.000000e+00 0
0.000000e+00 0.000000e+00 0
-2.899127e-18 0.000000e+00 0
0.000000e+00 0.000000e+00 0
0.000000e+00 0.000000e+00 0
0.000000e+00 0.000000e+00 0
0.000000e+00 0.000000e+00 0
0.000000e+00 0.000000e+00 0
0.000000e+00 0.000000e+00 0
0.000000e+00 0.000000e+00 0
0.000000e+00 0.000000e+00 0
0.000000e+00 0.000000e+00 0
0.000000e+00 0.000000e+00 0
0.000000e+00 0.000000e+00 0
0.000000e+00 0.000000e+00 0
0.000000e+00 0.000000e+00 0
0.000000e+00 0.000000e+00 0
0.000000e+00 0.000000e+00 0
0.000000e+00 0.000000e+00 0
0.000000e+00 0.000000e+00 0
0.000000e+00 0.000000e+00 0
0.000000e+00 0.000000e+00 0
0.000000e+00 0.000000e+00 0
0.000000e+00 0.000000e+00 0
0.000000e+00 0.000000e+00 0
0.000000e+00 0.000000e+00 0
0.000000e+00 0.000000e+00 0
0.000000e+00 0.000000e+00 0
0.000000e+00 0.000000e+00 0
0.000000e+00 0.000000e+00 0
0.000000e+00 0.000000e+00 0
0.000000e+00 0.000000e+00 0
0.000000e+00 0.000000e+00 0
0.000000e+00 0.000000e+00 0
0.000000e+00 0.000000e+00 0
0.000000e+00 0.000000e+00 0
0.000000e+00 0.000000e+00 0
0.000000e+00 0.000000e+00 0
0.000000e+00 0.000000e+00 0
0.000000e+00 0.000000e+00 0
0.000000e+00 0.000000e+00 0
0.000000e+00 0.000000e+00 0
0.000000e+00 0.000000e+00 0
0.000000e+00 0.000000e+00 0
0.000000e+00 0.000000e+00 0
0.000000e+00 0.000000e+00 0
0.000000e+00 0.000000e+00 0
0.000000e+00 0.000000e+00 0
0.000000e+00 0.000000e+00 0
0.000000e+00 0.000000e+00 0
0.000000e+00 0.000000e+00 0
0.000000e+00 0.000000e+00 0
0.000000e+00 0.000000e+00 0
0.000000e+00 0.000000e+00 0
0.000000e+00 0.000000e+00 0
0.000000e+00 0.000000e+00 0
0.000000e+00 0.000000e+00 0
0.000000e+00 0.000000e+00 0
0.000000e+00 0.000000e+00 0
0.000000e+00 0.000000e+00 0
0.000000e+00 0.000000e+00 0
0.000000e+00 0.000000e+00 0
0.000000e+00 0.000000e+00 0
0.000000e+00 0.000000e+00 0
0.000000e+00 0.000000e+00 0
0.000000e+00 0.000000e+00 0
0.000000e+00 0.000000e+00 0
0.000000e+00 0.000000e+00 0
0.000000e+00 0.000000e+00 0
0.000000e+00 0.000000e+00 0
0.000000e+00 0.000000e+00 0
0.000000e+00 0.000000e+00 0
0.000000e+00 0.000000e+00 0
0.000000e+00 0.000000e+00 0
0.000000e+00 0.000000e+00 0
0.000000e+00 0.000000e+00 0
0.000000e+00 0.000000e+00 0
0.000000e+00 0.000000e+00 0
0.000000e+00 0.000000e+00 0
0.000000e+00 0.000000e+00 0
0.000000e+00 0.000000e+00 0
0.000000e+00 0.000000e+00 0
0.000000e+00 0.000000e+00 0
0.000000e+00 0.000000e+00 0
0.000000e+00 0.000000e+00 0
0.000000e+00 0.000000e+00 0
0.000000e+00 0.000000e+00 0
0.000000e+00 0.000000e+00 0
0.000000e+00 0.000000e+00 0
0.000000e+00 0.000000e+00 0
0.000000e+00 0.000000e+00 0
0.000000e+00 0.000000e+00 0
0.000000e+00 0.000000e+00 0
0.000000e+00 0.000000e+00 0
0.000000e+00 0.000000e+00 0
0.000000e+00 0.000000e+00 0
0.000000e+00 0.000000e+00 0
0.000000e+00 0.000000e+00 0
0.000000e+00 0.000000e+00 0
2.108458e-01 3.078969e-04 0
2.108458e-01 3.671816e-04 0
2.104780e-01 5.110923e-04 0
2.099492e-01 7.229653e-04 0
2.091695e-01 1.027590e-03 0
2.080403e-01 1.436997e-03 0
2.064549e-01 1.959467e-03 0
2.042988e-01 2.602378e-03 0
2.014495e-01 3.372800e-03 0
1.977765e-01 4.277225e-03 0
1.931409e-01 5.320927e-03 0
1.873974e-01 6.506940e-03 0
1.803952e-01 7.834519e-03 0
1.719824e-01 9.296837e-03 0
1.620110e-01 1.087770e-02 0
1.503466e-01 1.254709e-02 0
1.368813e-01 1.425549e-02 0
1.215527e-01 1.592787e-02 0
1.043697e-01 1.746126e-02 0
8.544343e-02 1.874494e-02 0
6.502359e-02 1.978593e-02 0
4.355926e-02 2.023965e-02 0
2.194200e-02 1.780566e-02 0
1.728429e-03 1.139310e-02 0
-1.591560e-02 7.094501e-03 0
-2.764200e-02 6.779316e-03 0
-3.450724e-02 4.575017e-03 0
-3.381427e-02 -2.856432e-03 0
-2.264454e-02 -1.305748e-02 0
-7.729896e-03 -1.703028e-02 0
-2.867344e-03 -9.560594e-03 0
-2.982087e-02 1.202726e-02 0
-7.911805e-02 4.648367e-02 0
-1.300231e-01 6.043509e-02 0
-1.690888e-01 4.210550e-02 0
-1.902926e-01 1.860566e-02 0
-1.946347e-01 1.760818e-04 0
-1.845502e-01 -1.367046e-02 0
-1.631873e-01 -2.365740e-02 0
-1.343640e-01 -2.976595e-02 0
-1.017838e-01 -3.242584e-02 0
-6.851819e-02 -3.237343e-02 0
-3.675892e-02 -3.044380e-02 0
-7.854290e-03 -2.745402e-02 0
1.750941e-02 -2.388805e-02 0
3.907956e-02 -2.010421e-02 0
5.694255e-02 -1.647365e-02 0
7.138147e-02 -1.316422e-02 0
8.278725e-02 -1.026677e-02 0
9.159343e-02 -7.810742e-03 0
9.823133e-02 -5.784300e-03 0
1.031021e-01 -4.150599e-03 0
1.065614e-01 -2.860226e-03 0
1.089137e-01 -1.859970e-03 0
1.104126e-01 -1.098505e-03 0
1.112643e-01 -5.297785e-04 0
1.116339e-01 -1.153456e-04 0
1.116507e-01 1.793213e-04 0
1.114157e-01 3.854028e-04 0
1.110066e-01 5.255477e-04 0
1.104823e-01 6.154992e-04 0
1.098868e-01 6.674498e-04 0
1.092530e-01 6.910711e-04 0
1.086047e-01 6.939758e-04 0
1.079593e-01 6.820732e-04 0
1.073290e-01 6.598927e-04 0
1.067220e-01 6.308684e-04 0
1.061438e-01 5.975763e-04 0
1.055977e-01 5.619278e-04 0
1.050853e-01 5.253240e-04 0
1.046072e-01 4.887761e-04 0
1.041629e-01 4.529992e-04 0
1.037517e-01 4.184850e-04 0
1.033722e-01 3.855568e-04 0
1.030229e-01 3.544127e-04 0
1.027020e-01 3.251577e-04 0
1.024079e-01 2.978294e-04 0
1.021386e-01 2.724163e-04 0
1.018925e-01 2.488723e-04 0
1.016677e-01 2.271279e-04 0
1.014627e-01 2.070982e-04 0
1.012759e-01 1.886888e-04 0
1.011058e-01 1.718005e-04 0
1.009510e-01 1.563329e-04 0
1.008102e-01 1.421860e-04 0
1.006823e-01 1.292627e-04 0
1.005660e-01 1.174694e-04 0
1.004605e-01 1.067172e-04 0
1.003647e-01 9.692201e-05 0
1.002777e-01 8.800474e-05 0
1.001988e-01 7.989170e-05 0
1.001273e-01 7.251430e-05 0
1.000625e-01 6.580899e-05 0
1.000037e-01 5.971707e-05 0
9.995041e-02 5.418445e-05 0
9.990215e-02 4.916139e-05 0
9.985843e-02 4.460224e-05 0
9.981884e-02 4.046518e-05 0
9.978298e-02 3.671194e-05 0
9.975052e-02 3.330756e-05 0
9.972113e-02 3.022010e-05 0
9.969453e-02 2.742045e-05 0
9.967046e-02 2.488207e-05 0
9.964867e-02 2.258079e-05 0
9.962897e-02 2.049462e-05 0
9.961114e-02 1.860356e-05 0
9.959502e-02 1.688943e-05 0
9.958044e-02 1.533573e-05 0
9.956726e-02 1.392748e-05 0
9.955534e-02 1.265107e-05 0
9.954457e-02 1.149416e-05 0
9.953483e-02 1.044552e-05 0
9.952604e-02 9.494968e-06 0
9.951809e-02 8.633249e-06 0
9.951091e-02 7.851991e-06 0
9.950443e-02 7.143606e-06 0
9.949858e-02 6.501213e-06 0
9.949330e-02 5.918572e-06 0
9.948853e-02 5.390023e-06 0
9.948423e-02 4.910446e-06 0
9.948035e-02 4.475212e-06 0
9.947685e-02 4.080135e-06 0
9.947370e-02 3.721419e-06 0
9.947086e-02 3.395619e-06 0
9.946830e-02 3.099612e-06 0
9.946599e-02 2.830564e-06 0
9.946392e-02 2.585910e-06 0
9.946205e-02 2.363328e-06 0
9.946037e-02 2.160716e-06 0
9.945886e-02 1.976171e-06 0
9.945750e-02 1.807968e-06 0
9.945628e-02 1.654545e-06 0
9.945519e-02 1.514490e-06 0
9.945420e-02 1.386525e-06 0
9.945332e-02 1.269488e-06 0
9.945253e-02 1.162329e-06 0
9.945182e-02 1.064093e-06 0
9.945118e-02 9.739181e-07 0
9.945062e-02 8.910219e-07 0
9.945011e-02 8.146959e-07 0
9.944965e-02 7.442959e-07 0
9.944925e-02 6.792357e-07 0
9.944888e-02 6.189824e-07 0
9.944856e-02 5.630516e-07 0
9.944827e-02 5.110024e-07 0
9.944801e-02 4.624337e-07 0
9.944779e-02 4.169793e-07 0
9.944758e-02 3.743049e-07 0
9.944741e-02 3.341043e-07 0
9.944725e-02 2.960978e-07 0
9.944711e-02 2.600302e-07 0
9.944699e-02 2.256681e-07 0
9.944688e-02 1.927982e-07 0
9.944679e-02 1.612281e-07 0
9.944671e-02 1.307914e-07 0
9.944664e-02 1.013523e-07 0
9.944659e-02 7.278863e-08 0
9.944654e-02 4.523105e-08 0
9.944654e-02 3.175188e-08 0
2.677998e-01 6.046818e-04 0
2.677998e-01 6.897566e-04 0
2.674881e-01 9.444860e-04 0
2.670464e-01 1.378314e-03 0
2.663900e-01 2.010679e-03 0
2.654295e-01 2.859430e-03 0
2.640682e-01 3.941087e-03 0
2.622007e-01 5.272304e-03 0
2.597115e-01 6.870204e-03 0
2.564738e-01 8.751769e-03 0
2.523485e-01 1.093267e-02 0
2.471840e-01 1.342550e-02 0
2.408159e-01 1.623714e-02 0
2.330687e-01 1.936468e-02 0
2.237577e-01 2.278967e-02 0
2.126941e-01 2.647004e-02 0
1.996931e-01 3.032960e-02 0
1.845874e-01 3.424548e-02 0
1.672488e-01 3.803514e-02 0
1.476246e-01 4.144465e-02 0
1.258135e-01 4.411803e-02 0
1.022761e-01 4.537932e-02 0
7.754942e-02 4.406185e-02 0
5.091832e-02 3.987672e-02 0
2.283647e-02 3.093691e-02 0
8.452844e-04 1.958327e-02 0
-8.864304e-03 6.501523e-03 0
-5.488552e-03 -1.249529e-02 0
4.283216e-03 -2.747544e-02 0
-3.464638e-03 -2.083187e-02 0
-4.674153e-02 2.326929e-02 0
-1.060919e-01 8.031756e-02 0
-1.613030e-01 1.055465e-01 0
-1.931462e-01 9.476946e-02 0
-2.132490e-01 6.348413e-02 0
-2.233634e-01 2.690863e-02 0
-2.206516e-01 -6.048316e-03 0
-2.041961e-01 -3.312426e-02 0
-1.765911e-01 -5.286239e-02 0
-1.418341e-01 -6.467790e-02 0
-1.040029e-01 -6.935708e-02 0
-6.655822e-02 -6.849237e-02 0
-3.176795e-02 -6.389875e-02 0
-8.281435e-04 -5.716204e-02 0
2.568997e-02 -4.943636e-02 0
4.788549e-02 -4.153559e-02 0
6.602089e-02 -3.402399e-02 0
8.051622e-02 -2.722236e-02 0
9.185968e-02 -2.128918e-02 0
1.005498e-01 -1.626698e-02 0
1.070581e-01 -1.212162e-02 0
1.118080e-01 -8.773478e-03 0
1.151655e-01 -6.120747e-03 0
1.174379e-01 -4.055716e-03 0
1.188776e-01 -2.475054e-03 0
1.196874e-01 -1.285508e-03 0
1.200282e-01 -4.059997e-04 0
1.200242e-01 2.308046e-04 0
1.197738e-01 6.794028e-04 0
1.193540e-01 9.842214e-04 0
1.188232e-01 1.180579e-03 0
1.182247e-01 1.295962e-03 0
1.175905e-01 1.351589e-03 0
1.169437e-01 1.363750e-03 0
1.163011e-01 1.344881e-03 0
1.156743e-01 1.304423e-03 0
1.150713e-01 1.249490e-03 0
1.144972e-01 1.185407e-03 0
1.139551e-01 1.116126e-03 0
1.134466e-01 1.044543e-03 0
1.129721e-01 9.727567e-04 0
1.125313e-01 9.022564e-04 0
1.121232e-01 8.340722e-04 0
1.117466e-01 7.688893e-04 0
1.113998e-01 7.071348e-04 0
1.110813e-01 6.490448e-04 0
1.107892e-01 5.947155e-04 0
1.105218e-01 5.441412e-04 0
1.102773e-01 4.972446e-04 0
1.100540e-01 4.538984e-04 0
1.098503e-01 4.139424e-04 0
1.096646e-01 3.771961e-04 0
1.094955e-01 3.434678e-04 0
1.093416e-01 3.125614e-04 0
1.092016e-01 2.842817e-04 0
1.090744e-01 2.584379e-04 0
1.089588e-01 2.348458e-04 0
1.088538e-01 2.133295e-04 0
1.087584e-01 1.937226e-04 0
1.086719e-01 1.758687e-04 0
1.085934e-01 1.596213e-04 0
1.085222e-01 1.448443e-04 0
1.084576e-01 1.314111e-04 0
1.083991e-01 1.192050e-04 0
1.083460e-01 1.081181e-04 0
1.082980e-01 9.805122e-05 0
1.082544e-01 8.891336e-05 0
1.082150e-01 8.062097e-05 0
1.081792e-01 7.309761e-05 0
1.081469e-01 6.627340e-05 0
1.081176e-01 6.008451e-05 0
1.080911e-01 5.447271e-05 0
1.080671e-01 4.938490e-05 0
1.080453e-01 4.477274e-05 0
1.080257e-01 4.059220e-05 0
1.080079e-01 3.680325e-05 0
1.079918e-01 3.336947e-05 0
1.079773e-01 3.025777e-05 0
1.079641e-01 2.743808e-05 0
1.079522e-01 2.488310e-05 0
1.079414e-01 2.256803e-05 0
1.079317e-01 2.047037e-05 0
1.079229e-01 1.856971e-05 0
1.079150e-01 1.684754e-05 0
1.079078e-01 1.528706e-05 0
1.079013e-01 1.387306e-05 0
1.078955e-01 1.259172e-05 0
1.078902e-01 1.143054e-05 0
1.078854e-01 1.037817e-05 0
1.078811e-01 9.424346e-06 0
1.078772e-01 8.559752e-06 0
1.078737e-01 7.775947e-06 0
1.078705e-01 7.065287e-06 0
1.078677e-01 6.420842e-06 0
1.078651e-01 5.836340e-06 0
1.078628e-01 5.306098e-06 0
1.078607e-01 4.824968e-06 0
1.078588e-01 4.388289e-06 0
1.078571e-01 3.991838e-06 0
1.078556e-01 3.631788e-06 0
1.078542e-01 3.304675e-06 0
1.078530e-01 3.007361e-06 0
1.078519e-01 2.737000e-06 0
1.078509e-01 2.491017e-06 0
1.078500e-01 2.267078e-06 0
1.078492e-01 2.063065e-06 0
1.078485e-01 1.877061e-06 0
1.078478e-01 1.707329e-06 0
1.078473e-01 1.552289e-06 0
1.078467e-01 1.410510e-06 0
1.078463e-01 1.280693e-06 0
1.078459e-01 1.161658e-06 0
1.078455e-01 1.052331e-06 0
1.078452e-01 9.517369e-07 0
1.078449e-01 8.589868e-07 0
1.078446e-01 7.732705e-07 0
1.078444e-01 6.938484e-07 0
1.078441e-01 6.200443e-07 0
1.078440e-01 5.512394e-07 0
1.078438e-01 4.868662e-07 0
1.078437e-01 4.264038e-07 0
1.078435e-01 3.693744e-07 0
1.078434e-01 3.153411e-07 0
1.078433e-01 2.639086e-07 0
1.078432e-01 2.147270e-07 0
1.078432e-01 1.675081e-07 0
1.078431e-01 1.220779e-07 0
1.078431e-01 7.824327e-08 0
1.078431e-01 5.668848e-08 0
2.801698e-01 8.812486e-04 0
2.801698e-01 9.822461e-04 0
2.798902e-01 1.304694e-03 0
2.795234e-01 1.879599e-03 0
2.790061e-01 2.730774e-03 0
2.782693e-01 3.882673e-03 0
2.772368e-01 5.360462e-03 0
2.758243e-01 7.191385e-03 0
2.739375e-01 9.405103e-03 0
2.714702e-01 1.203290e-02 0
2.683027e-01 1.510623e-02 0
2.643004e-01 1.865462e-02 0
2.593117e-01 2.270259e-02 0
2.531669e-01 2.726482e-02 0
2.456765e-01 3.233896e-02 0
2.366308e-01 3.789515e-02 0
2.258009e-01 4.386120e-02 0
2.129438e-01 5.010255e-02 0
1.978149e-01 5.639549e-02 0
1.801933e-01 6.239018e-02 0
1.599321e-01 6.755305e-02 0
1.370215e-01 7.107782e-02 0
1.115159e-01 7.190252e-02 0
8.350668e-02 6.902410e-02 0
5.444135e-02 5.983812e-02 0
2.586245e-02 4.017082e-02 0
1.120205e-02 1.124669e-02 0
9.032937e-03 -1.670512e-02 0
-1.500311e-02 -1.518930e-02 0
-7.171792e-02 3.671584e-02 0
-1.400235e-01 9.854018e-02 0
-1.912177e-01 1.326987e-01 0
-2.234664e-01 1.381809e-01 0
-2.447613e-01 1.151516e-01 0
-2.568029e-01 7.393441e-02 0
-2.593782e-01 2.640324e-02 0
-2.489867e-01 -2.001328e-02 0
-2.245170e-01 -6.008070e-02 0
-1.889453e-01 -8.934514e-02 0
-1.468636e-01 -1.062253e-01 0
-1.027441e-01 -1.117162e-01 0
-6.054151e-02 -1.084606e-01 0
-2.266328e-02 -9.967922e-02 0
9.820229e-03 -8.797609e-02 0
3.675271e-02 -7.519945e-02 0
5.855380e-02 -6.258581e-02 0
7.579866e-02 -5.084437e-02 0
8.914565e-02 -4.038075e-02 0
9.925616e-02 -3.136847e-02 0
1.067450e-01 -2.381939e-02 0
1.121539e-01 -1.764255e-02 0
1.159417e-01 -1.269000e-02 0
1.184852e-01 -8.790065e-03 0
1.200873e-01 -5.769637e-03 0
1.209866e-01 -3.467536e-03 0
1.213687e-01 -1.741345e-03 0
1.213766e-01 -4.696677e-04 0
1.211197e-01 4.477452e-04 0
1.206806e-01 1.091803e-03 0
1.201211e-01 1.527293e-03 0
1.194876e-01 1.805485e-03 0
1.188145e-01 1.966369e-03 0
1.181267e-01 2.040838e-03 0
1.174422e-01 2.052588e-03 0
1.167738e-01 2.019680e-03 0
1.161300e-01 1.955802e-03 0
1.155167e-01 1.871262e-03 0
1.149370e-01 1.773765e-03 0
1.143929e-01 1.669024e-03 0
1.138848e-01 1.561225e-03 0
1.134125e-01 1.453397e-03 0
1.129751e-01 1.347686e-03 0
1.125711e-01 1.245575e-03 0
1.121991e-01 1.148045e-03 0
1.118571e-01 1.055705e-03 0
1.115435e-01 9.688858e-04 0
1.112562e-01 8.877150e-04 0
1.109935e-01 8.121737e-04 0
1.107535e-01 7.421385e-04 0
1.105345e-01 6.774141e-04 0
1.103348e-01 6.177577e-04 0
1.101529e-01 5.628969e-04 0
1.099874e-01 5.125438e-04 0
1.098368e-01 4.664048e-04 0
1.096998e-01 4.241877e-04 0
1.095753e-01 3.856070e-04 0
1.094623e-01 3.503875e-04 0
1.093596e-01 3.182666e-04 0
1.092665e-01 2.889958e-04 0
1.091819e-01 2.623416e-04 0
1.091052e-01 2.380854e-04 0
1.090357e-01 2.160240e-04 0
1.089726e-01 1.959686e-04 0
1.089154e-01 1.777449e-04 0
1.088636e-01 1.611920e-04 0
1.088167e-01 1.461620e-04 0
1.087742e-01 1.325188e-04 0
1.087356e-01 1.201379e-04 0
1.087008e-01 1.089052e-04 0
1.086692e-01 9.871644e-05 0
1.086406e-01 8.947633e-05 0
1.086147e-01 8.109794e-05 0
1.085913e-01 7.350206e-05 0
1.085701e-01 6.661650e-05 0
1.085509e-01 6.037556e-05 0
1.085335e-01 5.471945e-05 0
1.085178e-01 4.959382e-05 0
1.085036e-01 4.494927e-05 0
1.084907e-01 4.074089e-05 0
1.084791e-01 3.692793e-05 0
1.084686e-01 3.347336e-05 0
1.084591e-01 3.034360e-05 0
1.084506e-01 2.750816e-05 0
1.084428e-01 2.493940e-05 0
1.084358e-01 2.261224e-05 0
1.084295e-01 2.050395e-05 0
1.084238e-01 1.859390e-05 0
1.084186e-01 1.686342e-05 0
1.084139e-01 1.529556e-05 0
1.084097e-01 1.387497e-05 0
1.084059e-01 1.258775e-05 0
1.084025e-01 1.142128e-05 0
1.083994e-01 1.036415e-05 0
1.083966e-01 9.406005e-06 0
1.083941e-01 8.537474e-06 0
1.083919e-01 7.750067e-06 0
1.083898e-01 7.036092e-06 0
1.083880e-01 6.388583e-06 0
1.083863e-01 5.801229e-06 0
1.083848e-01 5.268313e-06 0
1.083835e-01 4.784658e-06 0
1.083823e-01 4.345571e-06 0
1.083812e-01 3.946803e-06 0
1.083802e-01 3.584501e-06 0
1.083794e-01 3.255177e-06 0
1.083786e-01 2.955666e-06 0
1.083779e-01 2.683102e-06 0
1.083773e-01 2.434884e-06 0
1.083767e-01 2.208654e-06 0
1.083762e-01 2.002271e-06 0
1.083757e-01 1.813791e-06 0
1.083753e-01 1.641451e-06 0
1.083750e-01 1.483644e-06 0
1.083746e-01 1.338911e-06 0
1.083743e-01 1.205922e-06 0
1.083741e-01 1.083466e-06 0
1.083739e-01 9.704339e-07 0
1.083737e-01 8.658148e-07 0
1.083735e-01 7.686811e-07 0
1.083733e-01 6.781822e-07 0
1.083732e-01 5.935363e-07 0
1.083730e-01 5.140244e-07 0
1.083729e-01 4.389857e-07 0
1.083728e-01 3.678149e-07 0
1.083728e-01 2.999626e-07 0
1.083727e-01 2.349406e-07 0
1.083726e-01 1.723341e-07 0
1.083726e-01 1.112883e-07 0
1.083726e-01 8.098871e-08 0
2.869812e-01 1.132392e-03 0
2.869812e-01 1.248152e-03 0
2.867299e-01 1.625364e-03 0
2.864076e-01 2.309483e-03 0
2.859632e-01 3.331659e-03 0
2.853393e-01 4.723134e-03 0
2.844724e-01 6.516452e-03 0
2.832920e-01 8.747563e-03 0
2.817191e-01 1.145657e-02 0
2.796650e-01 1.468709e-02 0
2.770287e-01 1.848487e-02 0
2.736959e-01 2.289604e-02 0
2.695357e-01 2.796439e-02 0
2.643977e-01 3.372707e-02 0
2.581075e-01 4.020774e-02 0
2.504620e-01 4.740575e-02 0
2.412225e-01 5.527988e-02 0
2.301100e-01 6.372411e-02 0
2.168011e-01 7.253235e-02 0
2.009312e-01 8.134786e-02 0
1.821079e-01 8.959236e-02 0
1.599357e-01 9.637774e-02 0
1.340533e-01 1.004308e-01 0
1.043306e-01 9.999523e-02 0
7.149231e-02 9.165553e-02 0
3.684943e-02 6.512868e-02 0
9.187943e-03 2.422864e-02 0
-2.626587e-02 1.510751e-02 0
-8.834234e-02 5.758217e-02 0
-1.579904e-01 1.108563e-01 0
-2.068647e-01 1.491424e-01 0
-2.419281e-01 1.682109e-01 0
-2.659255e-01 1.619459e-01 0
-2.841129e-01 1.298839e-01 0
-2.925187e-01 7.888073e-02 0
-2.887485e-01 1.867572e-02 0
-2.686748e-01 -4.276863e-02 0
-2.345222e-01 -9.636762e-02 0
-1.904536e-01 -1.346572e-01 0
-1.417469e-01 -1.554763e-01 0
-9.256062e-02 -1.602828e-01 0
-4.672135e-02 -1.528439e-01 0
-6.510847e-03 -1.380129e-01 0
2.683534e-02 -1.197466e-01 0
5.353225e-02 -1.007688e-01 0
7.422281e-02 -8.266368e-02 0
8.980895e-02 -6.624709e-02 0
1.012426e-01 -5.193060e-02 0
1.094062e-01 -3.982680e-02 0
1.150600e-01 -2.985224e-02 0
1.188277e-01 -2.180841e-02 0
1.212033e-01 -1.544211e-02 0
1.225671e-01 -1.048711e-02 0
1.232063e-01 -6.690047e-03 0
1.233342e-01 -3.824371e-03 0
1.231079e-01 -1.695883e-03 0
1.226420e-01 -1.433385e-04 0
1.220202e-01 9.643176e-04 0
1.213032e-01 1.731725e-03 0
1.205342e-01 2.241253e-03 0
1.197445e-01 2.557365e-03 0
1.189561e-01 2.729989e-03 0
1.181845e-01 2.797508e-03 0
1.174401e-01 2.789250e-03 0
1.167300e-01 2.727497e-03 0
1.160581e-01 2.629083e-03 0
1.154268e-01 2.506647e-03 0
1.148368e-01 2.369609e-03 0
1.142879e-01 2.224928e-03 0