<?xml version="1.0"?>
<VTKFile type="StructuredGrid">
<StructuredGrid WholeExtent="0 158 0 30 0 0 ">
<Piece Extent="0 158 0 30 0 0 ">
<Points>
<DataArray type="Float64" format="ascii" NumberOfComponents="3">
0.000000e+00 0.000000e+00 0.000000e+00
3.164557e-02 0.000000e+00 0.000000e+00
6.329114e-02 0.000000e+00 0.000000e+00
9.493671e-02 0.000000e+00 0.000000e+00
1.265823e-01 0.000000e+00 0.000000e+00
1.582278e-01 0.000000e+00 0.000000e+00
1.898734e-01 0.000000e+00 0.000000e+00
2.215190e-01 0.000000e+00 0.000000e+00
2.531646e-01 0.000000e+00 0.000000e+00
2.848101e-01 0.000000e+00 0.000000e+00
3.164557e-01 0.000000e+00 0.000000e+00
3.481013e-01 0.000000e+00 0.000000e+00
3.797468e-01 0.000000e+00 0.000000e+00
4.113924e-01 0.000000e+00 0.000000e+00
4.430380e-01 0.000000e+00 0.000000e+00
4.746835e-01 0.000000e+00 0.000000e+00
5.063291e-01 0.000000e+00 0.000000e+00
5.379747e-01 0.000000e+00 0.000000e+00
5.696203e-01 0.000000e+00 0.000000e+00
6.012658e-01 0.000000e+00 0.000000e+00
6.329114e-01 0.000000e+00 0.000000e+00
6.645570e-01 0.000000e+00 0.000000e+00
6.962025e-01 0.000000e+00 0.000000e+00
7.278481e-01 0.000000e+00 0.000000e+00
7.594937e-01 0.000000e+00 0.000000e+00
7.911392e-01 0.000000e+00 0.000000e+00
8.227848e-01 0.000000e+00 0.000000e+00
8.544304e-01 0.000000e+00 0.000000e+00
8.860759e-01 0.000000e+00 0.000000e+00
9.177215e-01 0.000000e+00 0.000000e+00
9.493671e-01 0.000000e+00 0.000000e+00
9.810127e-01 0.000000e+00 0.000000e+00
1.012658e+00 0.000000e+00 0.000000e+00
1.044304e+00 0.000000e+00 0.000000e+00
1.075949e+00 0.000000e+00 0.000000e+00
1.107595e+00 0.000000e+00 0.000000e+00
1.139241e+00 0.000000e+00 0.000000e+00
1.170886e+00 0.000000e+00 0.000000e+00
1.202532e+00 0.000000e+00 0.000000e+00
1.234177e+00 0.000000e+00 0.000000e+00
1.265823e+00 0.000000e+00 0.000000e+00
1.297468e+00 0.000000e+00 0.000000e+00
1.329114e+00 0.000000e+00 0.000000e+00
1.360759e+00 0.000000e+00 0.000000e+00
1.392405e+00 0.000000e+00 0.000000e+00
1.424051e+00 0.000000e+00 0.000000e+00
1.455696e+00 0.000000e+00 0.000000e+00
1.487342e+00 0.000000e+00 0.000000e+00
1.518987e+00 0.000000e+00 0.000000e+00
1.550633e+00 0.000000e+00 0.000000e+00
1.582278e+00 0.000000e+00 0.000000e+00
1.613924e+00 0.000000e+00 0.000000e+00
1.645570e+00 0.000000e+00 0.000000e+00
1.677215e+00 0.000000e+00 0.000000e+00
1.708861e+00 0.000000e+00 0.000000e+00
1.740506e+00 0.000000e+00 0.000000e+00
1.772152e+00 0.000000e+00 0.000000e+00
1.803797e+00 0.000000e+00 0.000000e+00
1.835443e+00 0.000000e+00 0.000000e+00
1.867089e+00 0.000000e+00 0.000000e+00
1.898734e+00 0.000000e+00 0.000000e+00
1.930380e+00 0.000000e+00 0.000000e+00
1.962025e+00 0.000000e+00 0.000000e+00
1.993671e+00 0.000000e+00 0.000000e+00
2.025316e+00 0.000000e+00 0.000000e+00
2.056962e+00 0.000000e+00 0.000000e+00
2.088608e+00 0.000000e+00 0.000000e+00
2.120253e+00 0.000000e+00 0.000000e+00
2.151899e+00 0.000000e+00 0.000000e+00
2.183544e+00 0.000000e+00 0.000000e+00
2.215190e+00 0.000000e+00 0.000000e+00
2.246835e+00 0.000000e+00 0.000000e+00
2.278481e+00 0.000000e+00 0.000000e+00
2.310127e+00 0.000000e+00 0.000000e+00
2.341772e+00 0.000000e+00 0.000000e+00
2.373418e+00 0.000000e+00 0.000000e+00
2.405063e+00 0.000000e+00 0.000000e+00
2.436709e+00 0.000000e+00 0.000000e+00
2.468354e+00 0.000000e+00 0.000000e+00
2.500000e+00 0.000000e+00 0.000000e+00
2.531646e+00 0.000000e+00 0.000000e+00
2.563291e+00 0.000000e+00 0.000000e+00
2.594937e+00 0.000000e+00 0.000000e+00
2.626582e+00 0.000000e+00 0.000000e+00
2.658228e+00 0.000000e+00 0.000000e+00
2.689873e+00 0.000000e+00 0.000000e+00
2.721519e+00 0.000000e+00 0.000000e+00
2.753165e+00 0.000000e+00 0.000000e+00
2.784810e+00 0.000000e+00 0.000000e+00
2.816456e+00 0.000000e+00 0.000000e+00
2.848101e+00 0.000000e+00 0.000000e+00
2.879747e+00 0.000000e+00 0.000000e+00
2.911392e+00 0.000000e+00 0.000000e+00
2.943038e+00 0.000000e+00 0.000000e+00
2.974684e+00 0.000000e+00 0.000000e+00
3.006329e+00 0.000000e+00 0.000000e+00
3.037975e+00 0.000000e+00 0.000000e+00
3.069620e+00 0.000000e+00 0.000000e+00
3.101266e+00 0.000000e+00 0.000000e+00
3.132911e+00 0.000000e+00 0.000000e+00
3.164557e+00 0.000000e+00 0.000000e+00
3.196203e+00 0.000000e+00 0.000000e+00
3.227848e+00 0.000000e+00 0.000000e+00
3.259494e+00 0.000000e+00 0.000000e+00
3.291139e+00 0.000000e+00 0.000000e+00
3.322785e+00 0.000000e+00 0.000000e+00
3.354430e+00 0.000000e+00 0.000000e+00
3.386076e+00 0.000000e+00 0.000000e+00
3.417722e+00 0.000000e+00 0.000000e+00
3.449367e+00 0.000000e+00 0.000000e+00
3.481013e+00 0.000000e+00 0.000000e+00
3.512658e+00 0.000000e+00 0.000000e+00
3.544304e+00 0.000000e+00 0.000000e+00
3.575949e+00 0.000000e+00 0.000000e+00
3.607595e+00 0.000000e+00 0.000000e+00
3.639241e+00 0.000000e+00 0.000000e+00
3.670886e+00 0.000000e+00 0.000000e+00
3.702532e+00 0.000000e+00 0.000000e+00
3.734177e+00 0.000000e+00 0.000000e+00
3.765823e+00 0.000000e+00 0.000000e+00
3.797468e+00 0.000000e+00 0.000000e+00
3.829114e+00 0.000000e+00 0.000000e+00
3.860759e+00 0.000000e+00 0.000000e+00
3.892405e+00 0.000000e+00 0.000000e+00
3.924051e+00 0.000000e+00 0.000000e+00
3.955696e+00 0.000000e+00 0.000000e+00
3.987342e+00 0.000000e+00 0.000000e+00
4.018987e+00 0.000000e+00 0.000000e+00
4.050633e+00 0.000000e+00 0.000000e+00
4.082278e+00 0.000000e+00 0.000000e+00
4.113924e+00 0.000000e+00 0.000000e+00
4.145570e+00 0.000000e+00 0.000000e+00
4.177215e+00 0.000000e+00 0.000000e+00
4.208861e+00 0.000000e+00 0.000000e+00
4.240506e+00 0.000000e+00 0.000000e+00
4.272152e+00 0.000000e+00 0.000000e+00
4.303797e+00 0.000000e+00 0.000000e+00
4.335443e+00 0.000000e+00 0.000000e+00
4.367089e+00 0.000000e+00 0.000000e+00
4.398734e+00 0.000000e+00 0.000000e+00
4.430380e+00 0.000000e+00 0.000000e+00
4.462025e+00 0.000000e+00 0.000000e+00
4.493671e+00 0.000000e+00 0.000000e+00
4.525316e+00 0.000000e+00 0.000000e+00
4.556962e+00 0.000000e+00 0.000000e+00
4.588608e+00 0.000000e+00 0.000000e+00
4.620253e+00 0.000000e+00 0.000000e+00
4.651899e+00 0.000000e+00 0.000000e+00
4.683544e+00 0.000000e+00 0.000000e+00
4.715190e+00 0.000000e+00 0.000000e+00
4.746835e+00 0.000000e+00 0.000000e+00
4.778481e+00 0.000000e+00 0.000000e+00
4.810127e+00 0.000000e+00 0.000000e+00
4.841772e+00 0.000000e+00 0.000000e+00
4.873418e+00 0.000000e+00 0.000000e+00
4.905063e+00 0.000000e+00 0.000000e+00
4.936709e+00 0.000000e+00 0.000000e+00
4.968354e+00 0.000000e+00 0.000000e+00
5.000000e+00 0.000000e+00 0.000000e+00
0.000000e+00 3.333333e-02 0.000000e+00
3.164557e-02 3.333333e-02 0.000000e+00
6.329114e-02 3.333333e-02 0.000000e+00
9.493671e-02 3.333333e-02 0.000000e+00
1.265823e-01 3.333333e-02 0.000000e+00
1.582278e-01 3.333333e-02 0.000000e+00
1.898734e-01 3.333333e-02 0.000000e+00
2.215190e-01 3.333333e-02 0.000000e+00
2.531646e-01 3.333333e-02 0.000000e+00
2.848101e-01 3.333333e-02 0.000000e+00
3.164557e-01 3.333333e-02 0.000000e+00
3.481013e-01 3.333333e-02 0.000000e+00
3.797468e-01 3.333333e-02 0.000000e+00
4.113924e-01 3.333333e-02 0.000000e+00
4.430380e-01 3.333333e-02 0.000000e+00
4.746835e-01 3.333333e-02 0.000000e+00
5.063291e-01 3.333333e-02 0.000000e+00
5.379747e-01 3.333333e-02 0.000000e+00
5.696203e-01 3.333333e-02 0.000000e+00
6.012658e-01 3.333333e-02 0.000000e+00
6.329114e-01 3.333333e-02 0.000000e+00
6.645570e-01 3.333333e-02 0.000000e+00
6.962025e-01 3.333333e-02 0.000000e+00
7.278481e-01 3.333333e-02 0.000000e+00
7.594937e-01 3.333333e-02 0.000000e+00
7.911392e-01 3.333333e-02 0.000000e+00
8.227848e-01 3.333333e-02 0.000000e+00
8.544304e-01 3.333333e-02 0.000000e+00
8.860759e-01 3.333333e-02 0.000000e+00
9.177215e-01 3.333333e-02 0.000000e+00
9.493671e-01 3.333333e-02 0.000000e+00
9.810127e-01 3.333333e-02 0.000000e+00
1.012658e+00 3.333333e-02 0.000000e+00
1.044304e+00 3.333333e-02 0.000000e+00
1.075949e+00 3.333333e-02 0.000000e+00
1.107595e+00 3.333333e-02 0.000000e+00
1.139241e+00 3.333333e-02 0.000000e+00
1.170886e+00 3.333333e-02 0.000000e+00
1.202532e+00 3.333333e-02 0.000000e+00
1.234177e+00 3.333333e-02 0.000000e+00
1.265823e+00 3.333333e-02 0.000000e+00
1.297468e+00 3.333333e-02 0.000000e+00
1.329114e+00 3.333333e-02 0.000000e+00
1.360759e+00 3.333333e-02 0.000000e+00
1.392405e+00 3.333333e-02 0.000000e+00
1.424051e+00 3.333333e-02 0.000000e+00
1.455696e+00 3.333333e-02 0.000000e+00
1.487342e+00 3.333333e-02 0.000000e+00
1.518987e+00 3.333333e-02 0.000000e+00
1.550633e+00 3.333333e-02 0.000000e+00
1.582278e+00 3.333333e-02 0.000000e+00
1.613924e+00 3.333333e-02 0.000000e+00
1.645570e+00 3.333333e-02 0.000000e+00
1.677215e+00 3.333333e-02 0.000000e+00
1.708861e+00 3.333333e-02 0.000000e+00
1.740506e+00 3.333333e-02 0.000000e+00
1.772152e+00 3.333333e-02 0.000000e+00
1.803797e+00 3.333333e-02 0.000000e+00
1.835443e+00 3.333333e-02 0.000000e+00
1.867089e+00 3.333333e-02 0.000000e+00
1.898734e+00 3.333333e-02 0.000000e+00
1.930380e+00 3.333333e-02 0.000000e+00
1.962025e+00 3.333333e-02 0.000000e+00
1.993671e+00 3.333333e-02 0.000000e+00
2.025316e+00 3.333333e-02 0.000000e+00
2.056962e+00 3.333333e-02 0.000000e+00
2.088608e+00 3.333333e-02 0.000000e+00
2.120253e+00 3.333333e-02 0.000000e+00
2.151899e+00 3.333333e-02 0.000000e+00
2.183544e+00 3.333333e-02 0.000000e+00
2.215190e+00 3.333333e-02 0.000000e+00
2.246835e+00 3.333333e-02 0.000000e+00
2.278481e+00 3.333333e-02 0.000000e+00
2.310127e+00 3.333333e-02 0.000000e+00
2.341772e+00 3.333333e-02 0.000000e+00
2.373418e+00 3.333333e-02 0.000000e+00
2.405063e+00 3.333333e-02 0.000000e+00
2.436709e+00 3.333333e-02 0.000000e+00
2.468354e+00 3.333333e-02 0.000000e+00
2.500000e+00 3.333333e-02 0.000000e+00
2.531646e+00 3.333333e-02 0.000000e+00
2.563291e+00 3.333333e-02 0.000000e+00
2.594937e+00 3.333333e-02 0.000000e+00
2.626582e+00 3.333333e-02 0.000000e+00
2.658228e+00 3.333333e-02 0.000000e+00
2.689873e+00 3.333333e-02 0.000000e+00
2.721519e+00 3.333333e-02 0.000000e+00
2.753165e+00 3.333333e-02 0.000000e+00
2.784810e+00 3.333333e-02 0.000000e+00
2.816456e+00 3.333333e-02 0.000000e+00
2.848101e+00 3.333333e-02 0.000000e+00
2.879747e+00 3.333333e-02 0.000000e+00
[...]
<PointData>
<DataArray Name="Velocity" type="Float64" format="ascii" NumberOfComponents="3">
0.000000e+00 0.000000e+00 0
0.000000e+00 0.000000e+00 0
0.000000e+00 0.000000e+00 0
0.000000e+00 0.000000e+00 0
0.000000e+00 0.000000e+00 0
0.000000e+00 0.000000e+00 0
0.000000e+00 0.000000e+00 0
0.000000e+00 0.000000e+00 0
0.000000e+00 0.000000e+00 0
0.000000e+00 0.000000e+00 0
0.000000e+00 0.000000e+00 0
0.000000e+00 0.000000e+00 0
0.000000e+00 0.000000e+00 0
0.000000e+00 0.000000e+00 0
0.000000e+00 0.000000e+00 0
0.000000e+00 0.000000e+00 0
0.000000e+00 0.000000e+00 0
0.000000e+00 0.000000e+00 0
0.000000e+00 0.000000e+00 0
2.523441e-18 0.000000e+00 0
0.000000e+00 0.000000e+00 0
0.000000e+00 0.000000e+00 0
0.000000e+00 0.000000e+00 0
8.156427e-18 0.000000e+00 0
0.000000e+00 0.000000e+00 0
0.000000e+00 0.000000e+00 0
0.000000e+00 0.000000e+00 0
2.508874e-17 0.000000e+00 0
0.000000e+00 0.000000e+00 0
0.000000e+00 0.000000e+00 0
0.000000e+00 0.000000e+00 0
-1.933719e-17 0.000000e+00 0
0.000000e+00 0.000000e+00 0
0.000000e+00 0.000000e+00 0
0.000000e+00 0.000000e+00 0
0.000000e+00 0.000000e+00 0
0.000000e+00 0.000000e+00 0
0.000000e+00 0.000000e+00 0
6.309613e-18 0.000000e+00 0
0.000000e+00 0.000000e+00 0
0.000000e+00 0.000000e+00 0
0.000000e+00 0.000000e+00 0
0.000000e+00 0.000000e+00 0
0.000000e+00 0.000000e+00 0
0.000000e+00 0.000000e+00 0
0.000000e+00 0.000000e+00 0
-8.236184e-18 0.000000e+00 0
0.000000e+00 0.000000e+00 0
0.000000e+00 0.000000e+00 0
0.000000e+00 0.000000e+00 0
0.000000e+00 0.000000e+00 0
0.000000e+00 0.000000e+00 0
0.000000e+00 0.000000e+00 0
0.000000e+00 0.000000e+00 0
2.338812e-17 0.000000e+00 0
0.000000e+00 0.000000e+00 0
0.000000e+00 0.000000e+00 0
0.000000e+00 0.000000e+00 0
0.000000e+00 0.000000e+00 0
0.000000e+00 0.000000e+00 0
0.000000e+00 0.000000e+00 0
0.000000e+00 0.000000e+00 0
-2.017121e-17 0.000000e+00 0
0.000000e+00 0.000000e+00 0
0.000000e+00 0.000000e+00 0
0.000000e+00 0.000000e+00 0
0.000000e+00 0.000000e+00 0
0.000000e+00 0.000000e+00 0
0.000000e+00 0.000000e+00 0
0.000000e+00 0.000000e+00 0
0.000000e+00 0.000000e+00 0
0.000000e+00 0.000000e+00 0
0.000000e+00 0.000000e+00 0
0.000000e+00 0.000000e+00 0
0.000000e+00 0.000000e+00 0
0.000000e+00 0.000000e+00 0
0.000000e+00 0.000000e+00 0
0.000000e+00 0.000000e+00 0
0.000000e+00 0.000000e+00 0
0.000000e+00 0.000000e+00 0
0.000000e+00 0.000000e+00 0
0.000000e+00 0.000000e+00 0
0.000000e+00 0.000000e+00 0
0.000000e+00 0.000000e+00 0
0.000000e+00 0.000000e+00 0
0.000000e+00 0.000000e+00 0
0.000000e+00 0.000000e+00 0
0.000000e+00 0.000000e+00 0
0.000000e+00 0.000000e+00 0
0.000000e+00 0.000000e+00 0
0.000000e+00 0.000000e+00 0
0.000000e+00 0.000000e+00 0
0.000000e+00 0.000000e+00 0
0.000000e+00 0.000000e+00 0
0.000000e+00 0.000000e+00 0
0.000000e+00 0.000000e+00 0
0.000000e+00 0.000000e+00 0
0.000000e+00 0.000000e+00 0
0.000000e+00 0.000000e+00 0
0.000000e+00 0.000000e+00 0
0.000000e+00 0.000000e+00 0
0.000000e+00 0.000000e+00 0
0.000000e+00 0.000000e+00 0
0.000000e+00 0.000000e+00 0
0.000000e+00 0.000000e+00 0
0.000000e+00 0.000000e+00 0
0.000000e+00 0.000000e+00 0
0.000000e+00 0.000000e+00 0
0.000000e+00 0.000000e+00 0
0.000000e+00 0.000000e+00 0
0.000000e+00 0.000000e+00 0
0.000000e+00 0.000000e+00 0
0.000000e+00 0.000000e+00 0
0.000000e+00 0.000000e+00 0
0.000000e+00 0.000000e+00 0
0.000000e+00 0.000000e+00 0
0.000000e+00 0.000000e+00 0
0.000000e+00 0.000000e+00 0
0.000000e+00 0.000000e+00 0
0.000000e+00 0.000000e+00 0
0.000000e+00 0.000000e+00 0
0.000000e+00 0.000000e+00 0
0.000000e+00 0.000000e+00 0
0.000000e+00 0.000000e+00 0
0.000000e+00 0.000000e+00 0
0.000000e+00 0.000000e+00 0
0.000000e+00 0.000000e+00 0
0.000000e+00 0.000000e+00 0
0.000000e+00 0.000000e+00 0
0.000000e+00 0.000000e+00 0
0.000000e+00 0.000000e+00 0
0.000000e+00 0.000000e+00 0
0.000000e+00 0.000000e+00 0
0.000000e+00 0.000000e+00 0
0.000000e+00 0.000000e+00 0
0.000000e+00 0.000000e+00 0
0.000000e+00 0.000000e+00 0
0.000000e+00 0.000000e+00 0
0.000000e+00 0.000000e+00 0
0.000000e+00 0.000000e+00 0
0.000000e+00 0.000000e+00 0
0.000000e+00 0.000000e+00 0
0.000000e+00 0.000000e+00 0
0.000000e+00 0.000000e+00 0
0.000000e+00 0.000000e+00 0
0.000000e+00 0.000000e+00 0
0.000000e+00 0.000000e+00 0
0.000000e+00 0.000000e+00 0
0.000000e+00 0.000000e+00 0
0.000000e+00 0.000000e+00 0
0.000000e+00 0.000000e+00 0
0.000000e+00 0.000000e+00 0
0.000000e+00 0.000000e+00 0
0.000000e+00 0.000000e+00 0
0.000000e+00 0.000000e+00 0
0.000000e+00 0.000000e+00 0
0.000000e+00 0.000000e+00 0
0.000000e+00 0.000000e+00 0
0.000000e+00 0.000000e+00 0
1.235580e+00 -1.056109e-04 0
1.235580e+00 -1.143303e-04 0
1.235677e+00 -1.125226e-04 0
1.235756e+00 -7.895242e-05 0
1.235799e+00 -2.641457e-05 0
1.235793e+00 3.796946e-05 0
1.235723e+00 1.162230e-04 0
1.235570e+00 2.132212e-04 0
1.235316e+00 3.323534e-04 0
1.234937e+00 4.769228e-04 0
1.234407e+00 6.505639e-04 0
1.233698e+00 8.573985e-04 0
1.232776e+00 1.101999e-03 0
1.231601e+00 1.389507e-03 0
1.230131e+00 1.725889e-03 0
1.228316e+00 2.117982e-03 0
1.226100e+00 2.573643e-03 0
1.223417e+00 3.102173e-03 0
1.220193e+00 3.714474e-03 0
1.216344e+00 4.423481e-03 0
1.211770e+00 5.244938e-03 0
1.206355e+00 6.197718e-03 0
1.199964e+00 7.304199e-03 0
1.192439e+00 8.590533e-03 0
1.183594e+00 1.008598e-02 0
1.173211e+00 1.182012e-02 0
1.161043e+00 1.381614e-02 0
1.146821e+00 1.607645e-02 0
1.130280e+00 1.855414e-02 0
1.111219e+00 2.110487e-02 0
1.089626e+00 2.342108e-02 0
1.065890e+00 2.498352e-02 0
1.041076e+00 2.513844e-02 0
1.017047e+00 2.345863e-02 0
9.958823e-01 2.022463e-02 0
9.786523e-01 1.625925e-02 0
9.654329e-01 1.232117e-02 0
9.557529e-01 8.849923e-03 0
9.489618e-01 5.998896e-03 0
9.444298e-01 3.746049e-03 0
9.416295e-01 1.975845e-03 0
9.401595e-01 4.004461e-04 0
9.396998e-01 -1.053171e-03 0
9.400580e-01 -2.212568e-03 0
9.410281e-01 -3.057049e-03 0
9.424272e-01 -3.618269e-03 0
9.440998e-01 -3.939390e-03 0
9.459171e-01 -4.064859e-03 0
9.477756e-01 -4.035665e-03 0
9.495929e-01 -3.887453e-03 0
9.513055e-01 -3.650107e-03 0
9.528650e-01 -3.348064e-03 0
9.542357e-01 -3.000979e-03 0
9.553921e-01 -2.624530e-03 0
9.563174e-01 -2.231055e-03 0
9.570015e-01 -1.829815e-03 0
9.574403e-01 -1.427414e-03 0
9.576378e-01 -1.025471e-03 0
9.576185e-01 -6.351627e-04 0
9.574085e-01 -2.871509e-04 0
9.570282e-01 -2.346198e-05 0
9.564925e-01 1.625672e-04 0
9.558170e-01 3.139474e-04 0
9.550145e-01 4.475731e-04 0
9.540951e-01 5.693728e-04 0
9.530672e-01 6.819381e-04 0
9.519378e-01 7.866585e-04 0
9.507136e-01 8.844101e-04 0
9.494003e-01 9.758145e-04 0
9.480033e-01 1.061352e-03 0
9.465278e-01 1.141416e-03 0
9.449783e-01 1.216343e-03 0
9.433595e-01 1.286433e-03 0
9.416754e-01 1.351954e-03 0
9.399301e-01 1.413153e-03 0
9.381274e-01 1.470261e-03 0
9.362707e-01 1.523494e-03 0
9.343636e-01 1.573055e-03 0
9.324091e-01 1.619137e-03 0
9.304103e-01 1.661923e-03 0
9.283700e-01 1.701586e-03 0
9.262911e-01 1.738289e-03 0
9.241760e-01 1.772188e-03 0
9.220273e-01 1.803428e-03 0
9.198471e-01 1.832146e-03 0
9.176378e-01 1.858469e-03 0
9.154013e-01 1.882520e-03 0
9.131397e-01 1.904411e-03 0
9.108548e-01 1.924250e-03 0
9.085484e-01 1.942136e-03 0
9.062223e-01 1.958163e-03 0
9.038780e-01 1.972422e-03 0
9.015170e-01 1.984993e-03 0
8.991409e-01 1.995957e-03 0
8.967510e-01 2.005386e-03 0
8.943486e-01 2.013349e-03 0
8.919350e-01 2.019910e-03 0
8.895115e-01 2.025130e-03 0
8.870792e-01 2.029066e-03 0
8.846391e-01 2.031770e-03 0
8.821925e-01 2.033291e-03 0
8.797402e-01 2.033676e-03 0
8.772833e-01 2.032968e-03 0
8.748226e-01 2.031208e-03 0
8.723593e-01 2.028432e-03 0
8.698940e-01 2.024676e-03 0
8.674276e-01 2.019973e-03 0
8.649610e-01 2.014353e-03 0
8.624950e-01 2.007845e-03 0
8.600303e-01 2.000475e-03 0
8.575677e-01 1.992267e-03 0
8.551079e-01 1.983243e-03 0
8.526516e-01 1.973424e-03 0
8.501995e-01 1.962828e-03 0
8.477523e-01 1.951473e-03 0
8.453107e-01 1.939373e-03 0
8.428752e-01 1.926542e-03 0
8.404466e-01 1.912992e-03 0
8.380255e-01 1.898734e-03 0
8.356125e-01 1.883775e-03 0
8.332083e-01 1.868125e-03 0
8.308134e-01 1.851790e-03 0
8.284284e-01 1.834775e-03 0
8.260541e-01 1.817085e-03 0
8.236909e-01 1.798723e-03 0
8.213395e-01 1.779691e-03 0
8.190006e-01 1.759987e-03 0
8.166746e-01 1.739610e-03 0
8.143623e-01 1.718552e-03 0
8.120643e-01 1.696806e-03 0
8.097812e-01 1.674360e-03 0
8.075137e-01 1.651199e-03 0
8.052624e-01 1.627313e-03 0
8.030279e-01 1.602687e-03 0
8.008110e-01 1.577315e-03 0
7.986123e-01 1.551193e-03 0
7.964326e-01 1.524322e-03 0
7.942724e-01 1.496710e-03 0
7.921324e-01 1.468369e-03 0
7.900133e-01 1.439315e-03 0
7.879157e-01 1.409563e-03 0
7.858403e-01 1.379127e-03 0
7.837876e-01 1.348013e-03 0
7.817585e-01 1.316227e-03 0
7.797534e-01 1.283755e-03 0
7.777731e-01 1.250574e-03 0
7.758183e-01 1.216641e-03 0
7.738897e-01 1.181880e-03 0
7.719882e-01 1.146187e-03 0
7.701147e-01 1.109424e-03 0
7.682704e-01 1.071378e-03 0
7.664566e-01 1.031752e-03 0
7.646750e-01 9.900931e-04 0
7.629278e-01 9.456880e-04 0
7.612179e-01 8.969931e-04 0
7.595490e-01 8.428838e-04 0
7.579262e-01 7.224801e-04 0
7.563562e-01 1.136480e-03 0
7.563562e-01 1.642477e-03 0
1.809643e+00 -2.077701e-04 0
1.809643e+00 -2.062732e-04 0
1.809725e+00 -1.849272e-04 0
1.809792e+00 -1.281793e-04 0
1.809836e+00 -3.936451e-05 0
1.809842e+00 8.065048e-05 0
1.809796e+00 2.351074e-04 0
1.809680e+00 4.287014e-04 0
1.809477e+00 6.670421e-04 0
1.809167e+00 9.565218e-04 0
1.808727e+00 1.304419e-03 0
1.808132e+00 1.718888e-03 0
1.807352e+00 2.209105e-03 0
1.806354e+00 2.785564e-03 0
1.805099e+00 3.460211e-03 0
1.803545e+00 4.246684e-03 0
1.801642e+00 5.160892e-03 0
1.799334e+00 6.221361e-03 0
1.796556e+00 7.449909e-03 0
1.793234e+00 8.872865e-03 0
1.789283e+00 1.052187e-02 0
1.784603e+00 1.243495e-02 0
1.779076e+00 1.465765e-02 0
1.772564e+00 1.724380e-02 0
1.764900e+00 2.025446e-02 0
1.755887e+00 2.375368e-02 0
1.745286e+00 2.779691e-02 0
1.732816e+00 3.240355e-02 0
1.718152e+00 3.750120e-02 0
1.700950e+00 4.282254e-02 0
1.680941e+00 4.774663e-02 0
1.658174e+00 5.113910e-02 0
1.633553e+00 5.144745e-02 0
1.609563e+00 4.760335e-02 0
1.589522e+00 4.044191e-02 0
1.574285e+00 3.207312e-02 0
1.563265e+00 2.412036e-02 0
1.555513e+00 1.734908e-02 0
1.550169e+00 1.192652e-02 0
1.546571e+00 7.723000e-03 0
1.544230e+00 4.497669e-03 0
1.542772e+00 2.032217e-03 0
1.541763e+00 1.066186e-04 0
1.540999e+00 -1.399408e-03 0
1.540396e+00 -2.495847e-03 0
1.539900e+00 -3.235712e-03 0
1.539473e+00 -3.676265e-03 0
1.539086e+00 -3.872073e-03 0
1.538714e+00 -3.872035e-03 0
1.538337e+00 -3.718404e-03 0
1.537938e+00 -3.446779e-03 0
1.537502e+00 -3.086617e-03 0
1.537017e+00 -2.662023e-03 0
1.536473e+00 -2.192816e-03 0
1.535860e+00 -1.695389e-03 0
1.535174e+00 -1.182995e-03 0
1.534419e+00 -6.703186e-04 0
1.533607e+00 -1.877382e-04 0
1.532746e+00 2.414070e-04 0
1.531833e+00 6.216178e-04 0
1.530856e+00 9.647608e-04 0
1.529777e+00 1.275688e-03 0
1.528589e+00 1.556708e-03 0
1.527295e+00 1.813653e-03 0
1.525901e+00 2.051160e-03 0
1.524411e+00 2.272276e-03 0
1.522831e+00 2.479021e-03 0
1.521166e+00 2.672821e-03 0
1.519421e+00 2.854748e-03 0
1.517600e+00 3.025657e-03 0
1.515707e+00 3.186265e-03 0
1.513746e+00 3.337192e-03 0
1.511721e+00 3.478993e-03 0
1.509636e+00 3.612173e-03 0
1.507493e+00 3.737197e-03 0
1.505295e+00 3.854500e-03 0
1.503046e+00 3.964492e-03 0
1.500749e+00 4.067559e-03 0
1.498405e+00 4.164068e-03 0
1.496018e+00 4.254365e-03 0
1.493590e+00 4.338778e-03 0
1.491123e+00 4.417620e-03 0
1.488619e+00 4.491181e-03 0
1.486081e+00 4.559740e-03 0
1.483509e+00 4.623555e-03 0
1.480907e+00 4.682869e-03 0
1.478275e+00 4.737913e-03 0
1.475616e+00 4.788901e-03 0
1.472930e+00 4.836036e-03 0
1.470220e+00 4.879508e-03 0
1.467487e+00 4.919496e-03 0
1.464731e+00 4.956168e-03 0
1.461955e+00 4.989683e-03 0
1.459159e+00 5.020190e-03 0
1.456345e+00 5.047828e-03 0
1.453513e+00 5.072728e-03 0
1.450665e+00 5.095014e-03 0
1.447802e+00 5.114800e-03 0
1.444925e+00 5.132194e-03 0
1.442034e+00 5.147296e-03 0
1.439130e+00 5.160201e-03 0
1.436215e+00 5.170996e-03 0
1.433288e+00 5.179762e-03 0
1.430352e+00 5.186576e-03 0
1.427405e+00 5.191508e-03 0
1.424450e+00 5.194623e-03 0
1.421487e+00 5.195984e-03 0
1.418516e+00 5.195646e-03 0
1.415539e+00 5.193661e-03 0
1.412555e+00 5.190078e-03 0
1.409566e+00 5.184939e-03 0
1.406571e+00 5.178286e-03 0
1.403572e+00 5.170155e-03 0
1.400569e+00 5.160578e-03 0
1.397563e+00 5.149586e-03 0
1.394554e+00 5.137202e-03 0
1.391542e+00 5.123452e-03 0
1.388529e+00 5.108354e-03 0
1.385514e+00 5.091925e-03 0
1.382498e+00 5.074179e-03 0
1.379483e+00 5.055128e-03 0
1.376467e+00 5.034780e-03 0
1.373452e+00 5.013141e-03 0
1.370439e+00 4.990216e-03 0
1.367427e+00 4.966004e-03 0
1.364417e+00 4.940505e-03 0
1.361410e+00 4.913712e-03 0
1.358406e+00 4.885616e-03 0
1.355406e+00 4.856204e-03 0
1.352411e+00 4.825459e-03 0
1.349420e+00 4.793363e-03 0
1.346434e+00 4.759895e-03 0
1.343454e+00 4.725038e-03 0
1.340481e+00 4.688778e-03 0
1.337515e+00 4.651103e-03 0
1.334556e+00 4.612012e-03 0
1.331605e+00 4.571507e-03 0
1.328662e+00 4.529598e-03 0
1.325729e+00 4.486300e-03 0
1.322805e+00 4.441630e-03 0
1.319892e+00 4.395604e-03 0
1.316989e+00 4.348231e-03 0
1.314097e+00 4.299512e-03 0
1.311218e+00 4.249435e-03 0
1.308350e+00 4.197966e-03 0
1.305496e+00 4.145048e-03 0
1.302656e+00 4.090579e-03 0
1.299830e+00 4.034413e-03 0
1.297019e+00 3.976346e-03 0
1.294224e+00 3.916085e-03 0
1.291447e+00 3.853210e-03 0
1.288687e+00 3.787136e-03 0
1.285947e+00 3.716980e-03 0
1.283229e+00 3.641528e-03 0
1.280535e+00 3.559033e-03 0
1.277866e+00 3.467282e-03 0
1.275226e+00 3.363039e-03 0
1.272564e+00 3.532567e-03 0
1.272564e+00 3.757861e-03 0
2.066461e+00 -3.113703e-04 0
2.066461e+00 -3.038606e-04 0
2.066554e+00 -2.694640e-04 0
2.066635e+00 -1.954670e-04 0
2.066701e+00 -7.999230e-05 0
2.066741e+00 7.957979e-05 0
2.066746e+00 2.874153e-04 0
2.066704e+00 5.494337e-04 0
2.066604e+00 8.729878e-04 0
2.066430e+00 1.266757e-03 0
2.066168e+00 1.740627e-03 0
2.065797e+00 2.305770e-03 0
2.065297e+00 2.974902e-03 0
2.064645e+00 3.762394e-03 0
2.063811e+00 4.684483e-03 0
2.062767e+00 5.759844e-03 0
2.061476e+00 7.009953e-03 0
2.059900e+00 8.459774e-03 0
2.057993e+00 1.013910e-02 0
2.055705e+00 1.208359e-02 0
2.052978e+00 1.433618e-02 0
2.049745e+00 1.694902e-02 0
2.045925e+00 1.998572e-02 0
2.041424e+00 2.352314e-02 0
2.036125e+00 2.765287e-02 0
2.029880e+00 3.248039e-02 0
2.022491e+00 3.811724e-02 0
2.013684e+00 4.465782e-02 0
2.003060e+00 5.211913e-02 0
1.990019e+00 6.029958e-02 0
1.973708e+00 6.847886e-02 0
1.953144e+00 7.489915e-02 0
1.928162e+00 7.634204e-02 0
1.902556e+00 6.983780e-02 0
1.884327e+00 5.738397e-02 0
1.873041e+00 4.391666e-02 0
1.866351e+00 3.209433e-02 0
1.862391e+00 2.264401e-02 0
1.860017e+00 1.541703e-02 0
1.858581e+00 1.000180e-02 0
1.857709e+00 5.977286e-03 0
1.857158e+00 2.999252e-03 0
1.856780e+00 8.148644e-04 0
1.856420e+00 -7.732362e-04 0
1.856028e+00 -1.900324e-03 0
1.855591e+00 -2.646590e-03 0
1.855106e+00 -3.081516e-03 0
1.854579e+00 -3.264659e-03 0
1.854013e+00 -3.246677e-03 0
1.853411e+00 -3.070290e-03 0
1.852777e+00 -2.771152e-03 0
1.852110e+00 -2.378646e-03 0
1.851412e+00 -1.916695e-03 0
1.850679e+00 -1.405502e-03 0
1.849909e+00 -8.627199e-04 0
1.849110e+00 -3.120487e-04 0
1.848283e+00 2.224882e-04 0
1.847424e+00 7.372704e-04 0
1.846516e+00 1.233648e-03 0
1.845540e+00 1.703510e-03 0
1.844491e+00 2.142184e-03 0
1.843365e+00 2.549769e-03 0
1.842160e+00 2.927844e-03 0
1.840878e+00 3.279505e-03 0
1.839521e+00 3.607877e-03 0
1.838090e+00 3.915528e-03 0
1.836590e+00 4.204460e-03 0
1.835024e+00 4.476245e-03 0
1.833395e+00 4.732152e-03 0
1.831706e+00 4.973241e-03 0
1.829960e+00 5.200427e-03 0
1.828159e+00 5.414520e-03 0
1.826308e+00 5.616254e-03 0
1.824407e+00 5.806303e-03 0
1.822460e+00 5.985294e-03 0
1.820468e+00 6.153814e-03 0
1.818435e+00 6.312418e-03 0
1.816362e+00 6.461630e-03 0
1.814250e+00 6.601946e-03 0
1.812103e+00 6.733839e-03 0
1.809921e+00 6.857753e-03 0
1.807706e+00 6.974111e-03 0
1.805460e+00 7.083311e-03 0
1.803184e+00 7.185730e-03 0
1.800880e+00 7.281719e-03 0
1.798549e+00 7.371613e-03 0
1.796193e+00 7.455723e-03 0
1.793811e+00 7.534344e-03 0
1.791407e+00 7.607751e-03 0
1.788980e+00 7.676205e-03 0
1.786532e+00 7.739949e-03 0
1.784063e+00 7.799213e-03 0
1.781575e+00 7.854214e-03 0
1.779068e+00 7.905155e-03 0
1.776544e+00 7.952227e-03 0
1.774003e+00 7.995609e-03 0
1.771446e+00 8.035469e-03 0
1.768873e+00 8.071965e-03 0
1.766285e+00 8.105243e-03 0
1.763683e+00 8.135442e-03 0
1.761068e+00 8.162690e-03 0
1.758439e+00 8.187106e-03 0
1.755798e+00 8.208802e-03 0
1.753146e+00 8.227880e-03 0
1.750482e+00 8.244438e-03 0
1.747807e+00 8.258563e-03 0
1.745122e+00 8.270339e-03 0
1.742427e+00 8.279841e-03 0
1.739722e+00 8.287139e-03 0
1.737009e+00 8.292297e-03 0
1.734287e+00 8.295374e-03 0
1.731557e+00 8.296423e-03 0
1.728819e+00 8.295494e-03 0
1.726074e+00 8.292629e-03 0
1.723322e+00 8.287867e-03 0
1.720563e+00 8.281244e-03 0
1.717798e+00 8.272788e-03 0
1.715027e+00 8.262526e-03 0
1.712251e+00 8.250479e-03 0
1.709470e+00 8.236667e-03 0
1.706684e+00 8.221103e-03 0
1.703894e+00 8.203798e-03 0
1.701100e+00 8.184759e-03 0
1.698302e+00 8.163990e-03 0
1.695500e+00 8.141491e-03 0
1.692696e+00 8.117256e-03 0
1.689889e+00 8.091280e-03 0
1.687080e+00 8.063549e-03 0
1.684269e+00 8.034047e-03 0
1.681456e+00 8.002755e-03 0
1.678642e+00 7.969653e-03 0
1.675827e+00 7.934719e-03 0
1.673012e+00 7.897934e-03 0
1.670197e+00 7.859282e-03 0
1.667382e+00 7.818752e-03 0
1.664568e+00 7.776337e-03 0
1.661754e+00 7.732039e-03 0
1.658942e+00 7.685863e-03 0
1.656132e+00 7.637816e-03 0
1.653324e+00 7.587908e-03 0
1.650518e+00 7.536145e-03 0
1.647716e+00 7.482523e-03 0
1.644916e+00 7.427031e-03 0
1.642121e+00 7.369637e-03 0
1.639330e+00 7.310288e-03 0
1.636543e+00 7.248892e-03 0
1.633762e+00 7.185310e-03 0
1.630987e+00 7.119346e-03 0
1.628217e+00 7.050729e-03 0
1.625455e+00 6.979059e-03 0
1.622701e+00 6.903802e-03 0
1.619954e+00 6.824171e-03 0
1.617217e+00 6.739096e-03 0
1.614490e+00 6.647146e-03 0
1.611775e+00 6.546383e-03 0
1.609072e+00 6.434789e-03 0
1.606383e+00 6.306888e-03 0
1.603712e+00 6.237101e-03 0
1.603712e+00 6.236475e-03 0
2.192878e+00 -4.209496e-04 0
2.192878e+00 -4.104484e-04 0
2.192982e+00 -3.684305e-04 0
2.193079e+00 -2.829143e-04 0
2.193166e+00 -1.503535e-04 0
2.193238e+00 3.331158e-05 0
2.193290e+00 2.736337e-04 0
2.193314e+00 5.781200e-04 0
2.193302e+00 9.555057e-04 0
2.193244e+00 1.416077e-03 0
2.193130e+00 1.971616e-03 0
2.192946e+00 2.635554e-03 0
2.192677e+00 3.423001e-03 0
2.192307e+00 4.350846e-03 0
2.191816e+00 5.438223e-03 0
2.191183e+00 6.706748e-03 0
2.190384e+00 8.181072e-03 0
2.189395e+00 9.890075e-03 0
2.188186e+00 1.186782e-02 0
2.186726e+00 1.415489e-02 0
2.184981e+00 1.680039e-02 0
2.182912e+00 1.986470e-02 0
2.180475e+00 2.342233e-02 0
2.177617e+00 2.756641e-02 0
2.174273e+00 3.241442e-02 0
2.170353e+00 3.811490e-02 0
2.165722e+00 4.485601e-02 0
2.160156e+00 5.287149e-02 0
2.153247e+00 6.242866e-02 0
2.144202e+00 7.373914e-02 0
2.131432e+00 8.658810e-02 0
2.111902e+00 9.911465e-02 0
2.081037e+00 1.047334e-01 0
2.043863e+00 9.377548e-02 0
2.026758e+00 7.153139e-02 0
2.021005e+00 5.100754e-02 0
2.019943e+00 3.533784e-02 0
2.020501e+00 2.402133e-02 0
2.021466e+00 1.594001e-02 0
2.022405e+00 1.015406e-02 0
2.023185e+00 5.995979e-03 0
2.023760e+00 3.010280e-03 0
2.024123e+00 8.842845e-04 0
2.024297e+00 -6.073729e-04 0
2.024292e+00 -1.622577e-03 0
2.024133e+00 -2.264822e-03 0
2.023845e+00 -2.610682e-03 0
2.023453e+00 -2.720246e-03 0
2.022977e+00 -2.642202e-03 0
2.022434e+00 -2.416606e-03 0
2.021836e+00 -2.076499e-03 0
2.021194e+00 -1.648808e-03 0
2.020516e+00 -1.154230e-03 0
2.019805e+00 -6.104937e-04 0
2.019062e+00 -4.303018e-05 0
2.018292e+00 5.304730e-04 0
2.017488e+00 1.105539e-03 0
2.016639e+00 1.673635e-03 0
2.015746e+00 2.225592e-03 0
2.014806e+00 2.754625e-03 0
2.013815e+00 3.256596e-03 0
2.012771e+00 3.730098e-03 0
2.011673e+00 4.175441e-03 0
2.010519e+00 4.594099e-03 0
2.009310e+00 4.987970e-03 0
2.008048e+00 5.358925e-03 0
2.006734e+00 5.708645e-03 0
2.005370e+00 6.038586e-03 0
2.003959e+00 6.350020e-03 0
2.002502e+00 6.644066e-03 0
2.001002e+00 6.921725e-03 0
1.999460e+00 7.183910e-03 0