<?xml version="1.0"?>
<VTKFile type="StructuredGrid">
<StructuredGrid WholeExtent="0 158 0 30 0 0 ">
<Piece Extent="0 158 0 30 0 0 ">
<Points>
<DataArray type="Float64" format="ascii" NumberOfComponents="3">
0.000000e+00 0.000000e+00 0.000000e+00
3.164557e-02 0.000000e+00 0.000000e+00
6.329114e-02 0.000000e+00 0.000000e+00
9.493671e-02 0.000000e+00 0.000000e+00
1.265823e-01 0.000000e+00 0.000000e+00
1.582278e-01 0.000000e+00 0.000000e+00
1.898734e-01 0.000000e+00 0.000000e+00
2.215190e-01 0.000000e+00 0.000000e+00
2.531646e-01 0.000000e+00 0.000000e+00
2.848101e-01 0.000000e+00 0.000000e+00
3.164557e-01 0.000000e+00 0.000000e+00
3.481013e-01 0.000000e+00 0.000000e+00
3.797468e-01 0.000000e+00 0.000000e+00
4.113924e-01 0.000000e+00 0.000000e+00
4.430380e-01 0.000000e+00 0.000000e+00
4.746835e-01 0.000000e+00 0.000000e+00
5.063291e-01 0.000000e+00 0.000000e+00
5.379747e-01 0.000000e+00 0.000000e+00
5.696203e-01 0.000000e+00 0.000000e+00
6.012658e-01 0.000000e+00 0.000000e+00
6.329114e-01 0.000000e+00 0.000000e+00
6.645570e-01 0.000000e+00 0.000000e+00
6.962025e-01 0.000000e+00 0.000000e+00
7.278481e-01 0.000000e+00 0.000000e+00
7.594937e-01 0.000000e+00 0.000000e+00
7.911392e-01 0.000000e+00 0.000000e+00
8.227848e-01 0.000000e+00 0.000000e+00
8.544304e-01 0.000000e+00 0.000000e+00
8.860759e-01 0.000000e+00 0.000000e+00
9.177215e-01 0.000000e+00 0.000000e+00
9.493671e-01 0.000000e+00 0.000000e+00
9.810127e-01 0.000000e+00 0.000000e+00
1.012658e+00 0.000000e+00 0.000000e+00
1.044304e+00 0.000000e+00 0.000000e+00
1.075949e+00 0.000000e+00 0.000000e+00
1.107595e+00 0.000000e+00 0.000000e+00
1.139241e+00 0.000000e+00 0.000000e+00
1.170886e+00 0.000000e+00 0.000000e+00
1.202532e+00 0.000000e+00 0.000000e+00
1.234177e+00 0.000000e+00 0.000000e+00
1.265823e+00 0.000000e+00 0.000000e+00
1.297468e+00 0.000000e+00 0.000000e+00
1.329114e+00 0.000000e+00 0.000000e+00
1.360759e+00 0.000000e+00 0.000000e+00
1.392405e+00 0.000000e+00 0.000000e+00
1.424051e+00 0.000000e+00 0.000000e+00
1.455696e+00 0.000000e+00 0.000000e+00
1.487342e+00 0.000000e+00 0.000000e+00
1.518987e+00 0.000000e+00 0.000000e+00
1.550633e+00 0.000000e+00 0.000000e+00
1.582278e+00 0.000000e+00 0.000000e+00
1.613924e+00 0.000000e+00 0.000000e+00
1.645570e+00 0.000000e+00 0.000000e+00
1.677215e+00 0.000000e+00 0.000000e+00
1.708861e+00 0.000000e+00 0.000000e+00
1.740506e+00 0.000000e+00 0.000000e+00
1.772152e+00 0.000000e+00 0.000000e+00
1.803797e+00 0.000000e+00 0.000000e+00
1.835443e+00 0.000000e+00 0.000000e+00
1.867089e+00 0.000000e+00 0.000000e+00
1.898734e+00 0.000000e+00 0.000000e+00
1.930380e+00 0.000000e+00 0.000000e+00
1.962025e+00 0.000000e+00 0.000000e+00
1.993671e+00 0.000000e+00 0.000000e+00
2.025316e+00 0.000000e+00 0.000000e+00
2.056962e+00 0.000000e+00 0.000000e+00
2.088608e+00 0.000000e+00 0.000000e+00
2.120253e+00 0.000000e+00 0.000000e+00
2.151899e+00 0.000000e+00 0.000000e+00
2.183544e+00 0.000000e+00 0.000000e+00
2.215190e+00 0.000000e+00 0.000000e+00
2.246835e+00 0.000000e+00 0.000000e+00
2.278481e+00 0.000000e+00 0.000000e+00
2.310127e+00 0.000000e+00 0.000000e+00
2.341772e+00 0.000000e+00 0.000000e+00
2.373418e+00 0.000000e+00 0.000000e+00
2.405063e+00 0.000000e+00 0.000000e+00
2.436709e+00 0.000000e+00 0.000000e+00
2.468354e+00 0.000000e+00 0.000000e+00
2.500000e+00 0.000000e+00 0.000000e+00
2.531646e+00 0.000000e+00 0.000000e+00
2.563291e+00 0.000000e+00 0.000000e+00
2.594937e+00 0.000000e+00 0.000000e+00
2.626582e+00 0.000000e+00 0.000000e+00
2.658228e+00 0.000000e+00 0.000000e+00
2.689873e+00 0.000000e+00 0.000000e+00
2.721519e+00 0.000000e+00 0.000000e+00
2.753165e+00 0.000000e+00 0.000000e+00
2.784810e+00 0.000000e+00 0.000000e+00
2.816456e+00 0.000000e+00 0.000000e+00
2.848101e+00 0.000000e+00 0.000000e+00
2.879747e+00 0.000000e+00 0.000000e+00
2.911392e+00 0.000000e+00 0.000000e+00
2.943038e+00 0.000000e+00 0.000000e+00
2.974684e+00 0.000000e+00 0.000000e+00
3.006329e+00 0.000000e+00 0.000000e+00
3.037975e+00 0.000000e+00 0.000000e+00
3.069620e+00 0.000000e+00 0.000000e+00
3.101266e+00 0.000000e+00 0.000000e+00
3.132911e+00 0.000000e+00 0.000000e+00
3.164557e+00 0.000000e+00 0.000000e+00
3.196203e+00 0.000000e+00 0.000000e+00
3.227848e+00 0.000000e+00 0.000000e+00
3.259494e+00 0.000000e+00 0.000000e+00
3.291139e+00 0.000000e+00 0.000000e+00
3.322785e+00 0.000000e+00 0.000000e+00
3.354430e+00 0.000000e+00 0.000000e+00
3.386076e+00 0.000000e+00 0.000000e+00
3.417722e+00 0.000000e+00 0.000000e+00
3.449367e+00 0.000000e+00 0.000000e+00
3.481013e+00 0.000000e+00 0.000000e+00
3.512658e+00 0.000000e+00 0.000000e+00
3.544304e+00 0.000000e+00 0.000000e+00
3.575949e+00 0.000000e+00 0.000000e+00
3.607595e+00 0.000000e+00 0.000000e+00
3.639241e+00 0.000000e+00 0.000000e+00
3.670886e+00 0.000000e+00 0.000000e+00
3.702532e+00 0.000000e+00 0.000000e+00
3.734177e+00 0.000000e+00 0.000000e+00
3.765823e+00 0.000000e+00 0.000000e+00
3.797468e+00 0.000000e+00 0.000000e+00
3.829114e+00 0.000000e+00 0.000000e+00
3.860759e+00 0.000000e+00 0.000000e+00
3.892405e+00 0.000000e+00 0.000000e+00
3.924051e+00 0.000000e+00 0.000000e+00
3.955696e+00 0.000000e+00 0.000000e+00
3.987342e+00 0.000000e+00 0.000000e+00
4.018987e+00 0.000000e+00 0.000000e+00
4.050633e+00 0.000000e+00 0.000000e+00
4.082278e+00 0.000000e+00 0.000000e+00
4.113924e+00 0.000000e+00 0.000000e+00
4.145570e+00 0.000000e+00 0.000000e+00
4.177215e+00 0.000000e+00 0.000000e+00
4.208861e+00 0.000000e+00 0.000000e+00
4.240506e+00 0.000000e+00 0.000000e+00
4.272152e+00 0.000000e+00 0.000000e+00
4.303797e+00 0.000000e+00 0.000000e+00
4.335443e+00 0.000000e+00 0.000000e+00
4.367089e+00 0.000000e+00 0.000000e+00
4.398734e+00 0.000000e+00 0.000000e+00
4.430380e+00 0.000000e+00 0.000000e+00
4.462025e+00 0.000000e+00 0.000000e+00
4.493671e+00 0.000000e+00 0.000000e+00
4.525316e+00 0.000000e+00 0.000000e+00
4.556962e+00 0.000000e+00 0.000000e+00
4.588608e+00 0.000000e+00 0.000000e+00
4.620253e+00 0.000000e+00 0.000000e+00
4.651899e+00 0.000000e+00 0.000000e+00
4.683544e+00 0.000000e+00 0.000000e+00
4.715190e+00 0.000000e+00 0.000000e+00
4.746835e+00 0.000000e+00 0.000000e+00
4.778481e+00 0.000000e+00 0.000000e+00
4.810127e+00 0.000000e+00 0.000000e+00
4.841772e+00 0.000000e+00 0.000000e+00
4.873418e+00 0.000000e+00 0.000000e+00
4.905063e+00 0.000000e+00 0.000000e+00
4.936709e+00 0.000000e+00 0.000000e+00
4.968354e+00 0.000000e+00 0.000000e+00
5.000000e+00 0.000000e+00 0.000000e+00
0.000000e+00 3.333333e-02 0.000000e+00
3.164557e-02 3.333333e-02 0.000000e+00
6.329114e-02 3.333333e-02 0.000000e+00
9.493671e-02 3.333333e-02 0.000000e+00
1.265823e-01 3.333333e-02 0.000000e+00
1.582278e-01 3.333333e-02 0.000000e+00
1.898734e-01 3.333333e-02 0.000000e+00
2.215190e-01 3.333333e-02 0.000000e+00
2.531646e-01 3.333333e-02 0.000000e+00
2.848101e-01 3.333333e-02 0.000000e+00
3.164557e-01 3.333333e-02 0.000000e+00
3.481013e-01 3.333333e-02 0.000000e+00
3.797468e-01 3.333333e-02 0.000000e+00
4.113924e-01 3.333333e-02 0.000000e+00
4.430380e-01 3.333333e-02 0.000000e+00
4.746835e-01 3.333333e-02 0.000000e+00
5.063291e-01 3.333333e-02 0.000000e+00
5.379747e-01 3.333333e-02 0.000000e+00
5.696203e-01 3.333333e-02 0.000000e+00
6.012658e-01 3.333333e-02 0.000000e+00
6.329114e-01 3.333333e-02 0.000000e+00
6.645570e-01 3.333333e-02 0.000000e+00
6.962025e-01 3.333333e-02 0.000000e+00
7.278481e-01 3.333333e-02 0.000000e+00
7.594937e-01 3.333333e-02 0.000000e+00
7.911392e-01 3.333333e-02 0.000000e+00
8.227848e-01 3.333333e-02 0.000000e+00
8.544304e-01 3.333333e-02 0.000000e+00
8.860759e-01 3.333333e-02 0.000000e+00
9.177215e-01 3.333333e-02 0.000000e+00
9.493671e-01 3.333333e-02 0.000000e+00
9.810127e-01 3.333333e-02 0.000000e+00
1.012658e+00 3.333333e-02 0.000000e+00
1.044304e+00 3.333333e-02 0.000000e+00
1.075949e+00 3.333333e-02 0.000000e+00
1.107595e+00 3.333333e-02 0.000000e+00
1.139241e+00 3.333333e-02 0.000000e+00
1.170886e+00 3.333333e-02 0.000000e+00
1.202532e+00 3.333333e-02 0.000000e+00
1.234177e+00 3.333333e-02 0.000000e+00
1.265823e+00 3.333333e-02 0.000000e+00
1.297468e+00 3.333333e-02 0.000000e+00
1.329114e+00 3.333333e-02 0.000000e+00
1.360759e+00 3.333333e-02 0.000000e+00
1.392405e+00 3.333333e-02 0.000000e+00
1.424051e+00 3.333333e-02 0.000000e+00
1.455696e+00 3.333333e-02 0.000000e+00
1.487342e+00 3.333333e-02 0.000000e+00
1.518987e+00 3.333333e-02 0.000000e+00
1.550633e+00 3.333333e-02 0.000000e+00
1.582278e+00 3.333333e-02 0.000000e+00
1.613924e+00 3.333333e-02 0.000000e+00
1.645570e+00 3.333333e-02 0.000000e+00
1.677215e+00 3.333333e-02 0.000000e+00
1.708861e+00 3.333333e-02 0.000000e+00
1.740506e+00 3.333333e-02 0.000000e+00
1.772152e+00 3.333333e-02 0.000000e+00
1.803797e+00 3.333333e-02 0.000000e+00
1.835443e+00 3.333333e-02 0.000000e+00
1.867089e+00 3.333333e-02 0.000000e+00
1.898734e+00 3.333333e-02 0.000000e+00
1.930380e+00 3.333333e-02 0.000000e+00
1.962025e+00 3.333333e-02 0.000000e+00
1.993671e+00 3.333333e-02 0.000000e+00
2.025316e+00 3.333333e-02 0.000000e+00
2.056962e+00 3.333333e-02 0.000000e+00
2.088608e+00 3.333333e-02 0.000000e+00
2.120253e+00 3.333333e-02 0.000000e+00
2.151899e+00 3.333333e-02 0.000000e+00
2.183544e+00 3.333333e-02 0.000000e+00
2.215190e+00 3.333333e-02 0.000000e+00
2.246835e+00 3.333333e-02 0.000000e+00
2.278481e+00 3.333333e-02 0.000000e+00
2.310127e+00 3.333333e-02 0.000000e+00
2.341772e+00 3.333333e-02 0.000000e+00
2.373418e+00 3.333333e-02 0.000000e+00
2.405063e+00 3.333333e-02 0.000000e+00
2.436709e+00 3.333333e-02 0.000000e+00
2.468354e+00 3.333333e-02 0.000000e+00
2.500000e+00 3.333333e-02 0.000000e+00
2.531646e+00 3.333333e-02 0.000000e+00
2.563291e+00 3.333333e-02 0.000000e+00
2.594937e+00 3.333333e-02 0.000000e+00
2.626582e+00 3.333333e-02 0.000000e+00
2.658228e+00 3.333333e-02 0.000000e+00
2.689873e+00 3.333333e-02 0.000000e+00
2.721519e+00 3.333333e-02 0.000000e+00
2.753165e+00 3.333333e-02 0.000000e+00
2.784810e+00 3.333333e-02 0.000000e+00
2.816456e+00 3.333333e-02 0.000000e+00
2.848101e+00 3.333333e-02 0.000000e+00
2.879747e+00 3.333333e-02 0.000000e+00
[...]
<PointData>
<DataArray Name="Velocity" type="Float64" format="ascii" NumberOfComponents="3">
0.000000e+00 0.000000e+00 0
0.000000e+00 0.000000e+00 0
0.000000e+00 0.000000e+00 0
0.000000e+00 0.000000e+00 0
0.000000e+00 0.000000e+00 0
0.000000e+00 0.000000e+00 0
0.000000e+00 0.000000e+00 0
0.000000e+00 0.000000e+00 0
0.000000e+00 0.000000e+00 0
0.000000e+00 0.000000e+00 0
0.000000e+00 0.000000e+00 0
0.000000e+00 0.000000e+00 0
0.000000e+00 0.000000e+00 0
0.000000e+00 0.000000e+00 0
0.000000e+00 0.000000e+00 0
0.000000e+00 0.000000e+00 0
0.000000e+00 0.000000e+00 0
0.000000e+00 0.000000e+00 0
0.000000e+00 0.000000e+00 0
-3.422120e-19 0.000000e+00 0
0.000000e+00 0.000000e+00 0
0.000000e+00 0.000000e+00 0
0.000000e+00 0.000000e+00 0
1.331742e-17 0.000000e+00 0
0.000000e+00 0.000000e+00 0
0.000000e+00 0.000000e+00 0
0.000000e+00 0.000000e+00 0
-8.357793e-18 0.000000e+00 0
0.000000e+00 0.000000e+00 0
0.000000e+00 0.000000e+00 0
0.000000e+00 0.000000e+00 0
-3.532162e-18 0.000000e+00 0
0.000000e+00 0.000000e+00 0
0.000000e+00 0.000000e+00 0
0.000000e+00 0.000000e+00 0
0.000000e+00 0.000000e+00 0
0.000000e+00 0.000000e+00 0
0.000000e+00 0.000000e+00 0
1.275131e-19 0.000000e+00 0
0.000000e+00 0.000000e+00 0
0.000000e+00 0.000000e+00 0
0.000000e+00 0.000000e+00 0
0.000000e+00 0.000000e+00 0
0.000000e+00 0.000000e+00 0
0.000000e+00 0.000000e+00 0
0.000000e+00 0.000000e+00 0
1.335692e-18 0.000000e+00 0
0.000000e+00 0.000000e+00 0
0.000000e+00 0.000000e+00 0
0.000000e+00 0.000000e+00 0
0.000000e+00 0.000000e+00 0
0.000000e+00 0.000000e+00 0
0.000000e+00 0.000000e+00 0
0.000000e+00 0.000000e+00 0
2.672276e-18 0.000000e+00 0
0.000000e+00 0.000000e+00 0
0.000000e+00 0.000000e+00 0
0.000000e+00 0.000000e+00 0
0.000000e+00 0.000000e+00 0
0.000000e+00 0.000000e+00 0
0.000000e+00 0.000000e+00 0
0.000000e+00 0.000000e+00 0
4.363221e-18 0.000000e+00 0
0.000000e+00 0.000000e+00 0
0.000000e+00 0.000000e+00 0
0.000000e+00 0.000000e+00 0
0.000000e+00 0.000000e+00 0
0.000000e+00 0.000000e+00 0
0.000000e+00 0.000000e+00 0
0.000000e+00 0.000000e+00 0
0.000000e+00 0.000000e+00 0
0.000000e+00 0.000000e+00 0
0.000000e+00 0.000000e+00 0
0.000000e+00 0.000000e+00 0
0.000000e+00 0.000000e+00 0
0.000000e+00 0.000000e+00 0
0.000000e+00 0.000000e+00 0
0.000000e+00 0.000000e+00 0
0.000000e+00 0.000000e+00 0
0.000000e+00 0.000000e+00 0
0.000000e+00 0.000000e+00 0
0.000000e+00 0.000000e+00 0
0.000000e+00 0.000000e+00 0
0.000000e+00 0.000000e+00 0
0.000000e+00 0.000000e+00 0
0.000000e+00 0.000000e+00 0
0.000000e+00 0.000000e+00 0
0.000000e+00 0.000000e+00 0
0.000000e+00 0.000000e+00 0
0.000000e+00 0.000000e+00 0
0.000000e+00 0.000000e+00 0
0.000000e+00 0.000000e+00 0
0.000000e+00 0.000000e+00 0
0.000000e+00 0.000000e+00 0
0.000000e+00 0.000000e+00 0
0.000000e+00 0.000000e+00 0
0.000000e+00 0.000000e+00 0
0.000000e+00 0.000000e+00 0
0.000000e+00 0.000000e+00 0
0.000000e+00 0.000000e+00 0
0.000000e+00 0.000000e+00 0
0.000000e+00 0.000000e+00 0
0.000000e+00 0.000000e+00 0
0.000000e+00 0.000000e+00 0
0.000000e+00 0.000000e+00 0
0.000000e+00 0.000000e+00 0
0.000000e+00 0.000000e+00 0
0.000000e+00 0.000000e+00 0
0.000000e+00 0.000000e+00 0
0.000000e+00 0.000000e+00 0
0.000000e+00 0.000000e+00 0
0.000000e+00 0.000000e+00 0
0.000000e+00 0.000000e+00 0
0.000000e+00 0.000000e+00 0
0.000000e+00 0.000000e+00 0
0.000000e+00 0.000000e+00 0
0.000000e+00 0.000000e+00 0
0.000000e+00 0.000000e+00 0
0.000000e+00 0.000000e+00 0
0.000000e+00 0.000000e+00 0
0.000000e+00 0.000000e+00 0
0.000000e+00 0.000000e+00 0
0.000000e+00 0.000000e+00 0
0.000000e+00 0.000000e+00 0
0.000000e+00 0.000000e+00 0
0.000000e+00 0.000000e+00 0
0.000000e+00 0.000000e+00 0
0.000000e+00 0.000000e+00 0
0.000000e+00 0.000000e+00 0
0.000000e+00 0.000000e+00 0
0.000000e+00 0.000000e+00 0
0.000000e+00 0.000000e+00 0
0.000000e+00 0.000000e+00 0
0.000000e+00 0.000000e+00 0
0.000000e+00 0.000000e+00 0
0.000000e+00 0.000000e+00 0
0.000000e+00 0.000000e+00 0
0.000000e+00 0.000000e+00 0
0.000000e+00 0.000000e+00 0
0.000000e+00 0.000000e+00 0
0.000000e+00 0.000000e+00 0
0.000000e+00 0.000000e+00 0
0.000000e+00 0.000000e+00 0
0.000000e+00 0.000000e+00 0
0.000000e+00 0.000000e+00 0
0.000000e+00 0.000000e+00 0
0.000000e+00 0.000000e+00 0
0.000000e+00 0.000000e+00 0
0.000000e+00 0.000000e+00 0
0.000000e+00 0.000000e+00 0
0.000000e+00 0.000000e+00 0
0.000000e+00 0.000000e+00 0
0.000000e+00 0.000000e+00 0
0.000000e+00 0.000000e+00 0
0.000000e+00 0.000000e+00 0
0.000000e+00 0.000000e+00 0
0.000000e+00 0.000000e+00 0
0.000000e+00 0.000000e+00 0
0.000000e+00 0.000000e+00 0
7.348504e-01 -1.189429e-04 0
7.348504e-01 -1.220810e-04 0
7.349543e-01 -1.036426e-04 0
7.350223e-01 -4.559407e-05 0
7.350288e-01 3.793193e-05 0
7.349478e-01 1.464109e-04 0
7.347503e-01 2.860900e-04 0
7.344041e-01 4.618504e-04 0
7.338724e-01 6.788600e-04 0
7.331132e-01 9.430608e-04 0
7.320785e-01 1.261376e-03 0
7.307129e-01 1.641866e-03 0
7.289528e-01 2.093899e-03 0
7.267248e-01 2.628372e-03 0
7.239444e-01 3.257996e-03 0
7.205137e-01 3.997668e-03 0
7.163194e-01 4.864948e-03 0
7.112299e-01 5.880654e-03 0
7.050917e-01 7.069582e-03 0
6.977252e-01 8.461347e-03 0
6.889195e-01 1.009130e-02 0
6.784260e-01 1.200140e-02 0
6.659516e-01 1.424076e-02 0
6.511502e-01 1.686535e-02 0
6.336160e-01 1.993563e-02 0
6.128781e-01 2.351002e-02 0
5.884035e-01 2.763021e-02 0
5.596172e-01 3.229138e-02 0
5.259591e-01 3.738716e-02 0
4.870112e-01 4.261840e-02 0
4.427466e-01 4.736690e-02 0
3.939553e-01 5.058625e-02 0
3.428159e-01 5.088545e-02 0
2.932445e-01 4.713495e-02 0
2.499744e-01 3.962729e-02 0
2.157311e-01 3.010986e-02 0
1.912195e-01 1.978178e-02 0
1.764949e-01 3.066618e-03 0
1.703067e-01 -1.532890e-02 0
1.707115e-01 -2.334365e-02 0
1.752676e-01 -2.285524e-02 0
1.817910e-01 -1.944463e-02 0
1.890482e-01 -1.586942e-02 0
1.964269e-01 -1.296946e-02 0
2.036597e-01 -1.084130e-02 0
2.106582e-01 -9.387208e-03 0
2.174206e-01 -8.474752e-03 0
2.239789e-01 -7.963133e-03 0
2.303678e-01 -7.710820e-03 0
2.366089e-01 -7.590157e-03 0
2.427058e-01 -7.501921e-03 0
2.486460e-01 -7.381341e-03 0
2.544060e-01 -7.194742e-03 0
2.599576e-01 -6.931102e-03 0
2.652717e-01 -6.593127e-03 0
2.703215e-01 -6.190419e-03 0
2.750839e-01 -5.735300e-03 0
2.795402e-01 -5.240745e-03 0
2.836755e-01 -4.719585e-03 0
2.874795e-01 -4.184264e-03 0
2.909451e-01 -3.646689e-03 0
2.940688e-01 -3.117944e-03 0
2.968496e-01 -2.607804e-03 0
2.992883e-01 -2.124128e-03 0
3.013869e-01 -1.672262e-03 0
3.031474e-01 -1.254555e-03 0
3.045711e-01 -8.698021e-04 0
3.056573e-01 -5.107382e-04 0
3.064038e-01 -1.476061e-04 0
3.068158e-01 2.991018e-04 0
3.069371e-01 8.613700e-04 0
3.068129e-01 1.470959e-03 0
3.064445e-01 2.064594e-03 0
3.058244e-01 2.612318e-03 0
3.049564e-01 3.100337e-03 0
3.038443e-01 3.530206e-03 0
3.024863e-01 3.911565e-03 0
3.008741e-01 4.252316e-03 0
2.989971e-01 4.546260e-03 0
2.968528e-01 4.758751e-03 0
2.944668e-01 4.812556e-03 0
2.919251e-01 4.577093e-03 0
2.894263e-01 3.873838e-03 0
2.874074e-01 2.562605e-03 0
2.865333e-01 7.003196e-04 0
2.872799e-01 -1.334096e-03 0
2.897175e-01 -3.209379e-03 0
2.937811e-01 -4.914001e-03 0
2.993870e-01 -6.519428e-03 0
3.064746e-01 -8.075642e-03 0
3.150077e-01 -9.605065e-03 0
3.249597e-01 -1.110712e-02 0
3.362961e-01 -1.256359e-02 0
3.489602e-01 -1.394476e-02 0
3.628653e-01 -1.521597e-02 0
3.778929e-01 -1.634345e-02 0
3.938965e-01 -1.729877e-02 0
4.107076e-01 -1.806155e-02 0
4.281445e-01 -1.862057e-02 0
4.460206e-01 -1.897363e-02 0
4.641518e-01 -1.912642e-02 0
4.823634e-01 -1.909101e-02 0
5.004943e-01 -1.888407e-02 0
5.184005e-01 -1.852523e-02 0
5.359567e-01 -1.803556e-02 0
5.530572e-01 -1.743636e-02 0
5.696149e-01 -1.674824e-02 0
5.855609e-01 -1.599047e-02 0
6.008426e-01 -1.518059e-02 0
6.154221e-01 -1.433416e-02 0
6.292743e-01 -1.346471e-02 0
6.423853e-01 -1.258384e-02 0
6.547502e-01 -1.170127e-02 0
6.663721e-01 -1.082507e-02 0
6.772601e-01 -9.961818e-03 0
6.874286e-01 -9.116811e-03 0
6.968957e-01 -8.294269e-03 0
7.056826e-01 -7.497500e-03 0
7.138127e-01 -6.729066e-03 0
7.213113e-01 -5.990919e-03 0
7.282045e-01 -5.284522e-03 0
7.345194e-01 -4.610946e-03 0
7.402835e-01 -3.970976e-03 0
7.455244e-01 -3.365212e-03 0
7.502697e-01 -2.794210e-03 0
7.545472e-01 -2.258704e-03 0
7.583844e-01 -1.759963e-03 0
7.618092e-01 -1.300413e-03 0
7.648496e-01 -8.847330e-04 0
7.675341e-01 -5.218705e-04 0
7.698911e-01 -2.271660e-04 0
7.719453e-01 -7.159499e-06 0
7.737151e-01 1.644182e-04 0
7.752162e-01 3.189326e-04 0
7.764598e-01 4.673731e-04 0
7.774530e-01 6.141318e-04 0
7.782000e-01 7.624201e-04 0
7.787036e-01 9.181988e-04 0
7.789691e-01 1.092379e-03 0
7.790123e-01 1.289045e-03 0
7.788406e-01 1.503360e-03 0
7.784414e-01 1.733929e-03 0
7.777957e-01 1.979747e-03 0
7.768903e-01 2.237889e-03 0
7.757145e-01 2.506966e-03 0
7.742573e-01 2.786770e-03 0
7.725078e-01 3.077387e-03 0
7.704546e-01 3.378608e-03 0
7.680871e-01 3.689561e-03 0
7.653955e-01 4.008410e-03 0
7.623724e-01 4.332005e-03 0
7.590139e-01 4.655340e-03 0
7.553213e-01 4.970530e-03 0
7.513044e-01 5.264617e-03 0
7.469861e-01 5.513869e-03 0
7.424106e-01 5.669473e-03 0
7.376598e-01 5.558117e-03 0
7.328608e-01 5.202634e-03 0
7.328608e-01 5.004594e-03 0
1.015418e+00 -2.372737e-04 0
1.015418e+00 -2.280117e-04 0
1.015514e+00 -1.810048e-04 0
1.015584e+00 -7.855309e-05 0
1.015607e+00 7.847766e-05 0
1.015558e+00 2.933997e-04 0
1.015411e+00 5.726694e-04 0
1.015138e+00 9.247164e-04 0
1.014708e+00 1.359678e-03 0
1.014083e+00 1.889536e-03 0
1.013223e+00 2.528330e-03 0
1.012079e+00 3.292409e-03 0
1.010596e+00 4.200775e-03 0
1.008711e+00 5.275518e-03 0
1.006349e+00 6.542408e-03 0
1.003426e+00 8.031660e-03 0
9.998423e-01 9.778917e-03 0
9.954835e-01 1.182650e-02 0
9.902156e-01 1.422492e-02 0
9.838814e-01 1.703471e-02 0
9.762957e-01 2.032846e-02 0
9.672387e-01 2.419288e-02 0
9.564486e-01 2.873055e-02 0
9.436119e-01 3.406014e-02 0
9.283516e-01 4.031329e-02 0
9.102144e-01 4.762385e-02 0
8.886575e-01 5.610147e-02 0
8.630407e-01 6.577466e-02 0
8.326368e-01 7.647825e-02 0
7.966978e-01 8.765053e-02 0
7.546586e-01 9.801883e-02 0
7.066523e-01 1.052603e-01 0
6.545662e-01 1.060821e-01 0
6.034508e-01 9.779307e-02 0
5.607313e-01 8.164740e-02 0
5.285137e-01 6.188846e-02 0
5.059232e-01 4.132871e-02 0
4.907439e-01 2.202802e-02 0
4.747162e-01 6.091781e-03 0
4.591975e-01 -5.225571e-03 0
4.475492e-01 -1.167049e-02 0
4.403890e-01 -1.451561e-02 0
4.368300e-01 -1.541653e-02 0
4.357887e-01 -1.539089e-02 0
4.363922e-01 -1.499042e-02 0
4.380138e-01 -1.449491e-02 0
4.402147e-01 -1.403119e-02 0
4.426928e-01 -1.363776e-02 0
4.452493e-01 -1.330375e-02 0
4.477654e-01 -1.299621e-02 0
4.501811e-01 -1.267914e-02 0
4.524741e-01 -1.232430e-02 0
4.546441e-01 -1.191502e-02 0
4.567007e-01 -1.144530e-02 0
4.586565e-01 -1.091679e-02 0
4.605241e-01 -1.033573e-02 0
4.623144e-01 -9.710450e-03 0
4.640364e-01 -9.049903e-03 0
4.656974e-01 -8.362848e-03 0
4.673023e-01 -7.657433e-03 0
4.688540e-01 -6.940934e-03 0
4.703530e-01 -6.219507e-03 0
4.717973e-01 -5.497932e-03 0
4.731823e-01 -4.779338e-03 0
4.745016e-01 -4.064984e-03 0
4.757466e-01 -3.354111e-03 0
4.769083e-01 -2.643897e-03 0
4.779771e-01 -1.930528e-03 0
4.789474e-01 -1.220275e-03 0
4.798345e-01 -5.617513e-04 0
4.807063e-01 3.063412e-06 0
4.816142e-01 5.188555e-04 0
4.825915e-01 1.041164e-03 0
4.836670e-01 1.567446e-03 0
4.848382e-01 2.085723e-03 0
4.860877e-01 2.601888e-03 0
4.873933e-01 3.128667e-03 0
4.887307e-01 3.675322e-03 0
4.900752e-01 4.235821e-03 0
4.914041e-01 4.771934e-03 0
4.927164e-01 5.190584e-03 0
4.940930e-01 5.309458e-03 0
4.957886e-01 4.758751e-03 0
4.980945e-01 3.047321e-03 0
5.010805e-01 1.343072e-04 0
5.047143e-01 -3.353851e-03 0
5.091873e-01 -6.847772e-03 0
5.146894e-01 -1.018519e-02 0
5.213431e-01 -1.337044e-02 0
5.292213e-01 -1.645366e-02 0
5.383597e-01 -1.947085e-02 0
5.487597e-01 -2.242372e-02 0
5.603881e-01 -2.528047e-02 0
5.731780e-01 -2.798612e-02 0
5.870309e-01 -3.047571e-02 0
6.018217e-01 -3.268610e-02 0
6.174056e-01 -3.456468e-02 0
6.336250e-01 -3.607454e-02 0
6.503168e-01 -3.719634e-02 0
6.673193e-01 -3.792773e-02 0
6.844777e-01 -3.828116e-02 0
7.016482e-01 -3.828076e-02 0
7.187012e-01 -3.795908e-02 0
7.355228e-01 -3.735382e-02 0
7.520160e-01 -3.650515e-02 0
7.681001e-01 -3.545339e-02 0
7.837103e-01 -3.423739e-02 0
7.987963e-01 -3.289332e-02 0
8.133211e-01 -3.145394e-02 0
8.272594e-01 -2.994826e-02 0
8.405960e-01 -2.840142e-02 0
8.533242e-01 -2.683483e-02 0
8.654444e-01 -2.526637e-02 0
8.769628e-01 -2.371076e-02 0
8.878904e-01 -2.217986e-02 0
8.982416e-01 -2.068312e-02 0
9.080338e-01 -1.922785e-02 0
9.172862e-01 -1.781965e-02 0
9.260194e-01 -1.646264e-02 0
9.342549e-01 -1.515977e-02 0
9.420146e-01 -1.391303e-02 0
9.493205e-01 -1.272366e-02 0
9.561946e-01 -1.159233e-02 0
9.626584e-01 -1.051928e-02 0
9.687326e-01 -9.504536e-03 0
9.744376e-01 -8.548037e-03 0
9.797922e-01 -7.649887e-03 0
9.848143e-01 -6.810535e-03 0
9.895188e-01 -6.030781e-03 0
9.939168e-01 -5.310925e-03 0
9.980118e-01 -4.647011e-03 0
1.001795e+00 -4.028479e-03 0
1.005255e+00 -3.445915e-03 0
1.008400e+00 -2.891680e-03 0
1.011241e+00 -2.356635e-03 0
1.013787e+00 -1.833555e-03 0
1.016045e+00 -1.317783e-03 0
1.018021e+00 -8.106367e-04 0
1.019721e+00 -3.256840e-04 0
1.021154e+00 1.349513e-04 0
1.022325e+00 6.009175e-04 0
1.023249e+00 1.100177e-03 0
1.023937e+00 1.633329e-03 0
1.024384e+00 2.191788e-03 0
1.024583e+00 2.773074e-03 0
1.024525e+00 3.377367e-03 0
1.024202e+00 4.005149e-03 0
1.023603e+00 4.656131e-03 0
1.022721e+00 5.328662e-03 0
1.021546e+00 6.019220e-03 0
1.020073e+00 6.721812e-03 0
1.018297e+00 7.427037e-03 0
1.016217e+00 8.120463e-03 0
1.013839e+00 8.779592e-03 0
1.011171e+00 9.368029e-03 0
1.008224e+00 9.823602e-03 0
1.005002e+00 1.005916e-02 0
1.001384e+00 9.848778e-03 0
1.001384e+00 9.587527e-03 0
1.122811e+00 -3.626201e-04 0
1.122811e+00 -3.458109e-04 0
1.122925e+00 -2.789022e-04 0
1.123019e+00 -1.434477e-04 0
1.123081e+00 6.506802e-05 0
1.123095e+00 3.528216e-04 0
1.123044e+00 7.283997e-04 0
1.122907e+00 1.203005e-03 0
1.122664e+00 1.790413e-03 0
1.122289e+00 2.507053e-03 0
1.121751e+00 3.372213e-03 0
1.121016e+00 4.408348e-03 0
1.120046e+00 5.641512e-03 0
1.118795e+00 7.101954e-03 0
1.117211e+00 8.824914e-03 0
1.115234e+00 1.085168e-02 0
1.112795e+00 1.323099e-02 0
1.109814e+00 1.602078e-02 0
1.106199e+00 1.929047e-02 0
1.101843e+00 2.312368e-02 0
1.096619e+00 2.762164e-02 0
1.090377e+00 3.290694e-02 0
1.082936e+00 3.912765e-02 0
1.074074e+00 4.646093e-02 0
1.063515e+00 5.511435e-02 0
1.050904e+00 6.532107e-02 0
1.035770e+00 7.731981e-02 0
1.017470e+00 9.129981e-02 0
9.951000e-01 1.072683e-01 0
9.673797e-01 1.247555e-01 0
9.325898e-01 1.422148e-01 0
8.889010e-01 1.560170e-01 0
8.361570e-01 1.595910e-01 0
7.811475e-01 1.459743e-01 0
7.416463e-01 1.185611e-01 0
7.167426e-01 8.784107e-02 0
7.013024e-01 5.956585e-02 0
6.905658e-01 3.593795e-02 0
6.819060e-01 1.790001e-02 0
6.741283e-01 5.272264e-03 0
6.671430e-01 -3.043687e-03 0
6.614040e-01 -8.153797e-03 0
6.569671e-01 -1.102378e-02 0
6.536500e-01 -1.250838e-02 0
6.512041e-01 -1.318514e-02 0
6.493914e-01 -1.341362e-02 0
6.480103e-01 -1.340334e-02 0
6.469014e-01 -1.326622e-02 0
6.459479e-01 -1.305405e-02 0
6.450717e-01 -1.278502e-02 0
6.442274e-01 -1.246175e-02 0
6.433941e-01 -1.208249e-02 0
6.425680e-01 -1.164683e-02 0
6.417549e-01 -1.115756e-02 0
6.409664e-01 -1.062048e-02 0
6.402160e-01 -1.004337e-02 0
6.395178e-01 -9.434982e-03 0
6.388855e-01 -8.804223e-03 0
6.383323e-01 -8.159682e-03 0
6.378705e-01 -7.509310e-03 0
6.375118e-01 -6.860173e-03 0
6.372674e-01 -6.218221e-03 0
6.371481e-01 -5.588045e-03 0
6.371649e-01 -4.972665e-03 0
6.373288e-01 -4.373370e-03 0
6.376514e-01 -3.789648e-03 0
6.381453e-01 -3.219261e-03 0
6.388246e-01 -2.658606e-03 0
6.397045e-01 -2.104010e-03 0
6.407923e-01 -1.553611e-03 0
6.420571e-01 -1.013336e-03 0
6.434691e-01 -5.148063e-04 0
6.450450e-01 -9.762928e-05 0
6.468094e-01 2.457661e-04 0
6.487811e-01 5.504911e-04 0
6.509815e-01 8.389151e-04 0
6.534417e-01 1.127618e-03 0
6.562093e-01 1.427329e-03 0
6.593575e-01 1.730341e-03 0
6.629949e-01 1.976700e-03 0
6.672736e-01 1.980303e-03 0
6.723757e-01 1.341124e-03 0
6.784268e-01 -3.410713e-04 0
6.853206e-01 -3.011447e-03 0
6.927027e-01 -6.272486e-03 0
7.003414e-01 -9.873276e-03 0
7.083606e-01 -1.371640e-02 0
7.169694e-01 -1.771804e-02 0
7.263478e-01 -2.182638e-02 0
7.366048e-01 -2.599979e-02 0
7.477749e-01 -3.018542e-02 0
7.598298e-01 -3.431035e-02 0
7.726941e-01 -3.828421e-02 0
7.862608e-01 -4.200842e-02 0
8.004048e-01 -4.538733e-02 0
8.149923e-01 -4.833820e-02 0
8.298891e-01 -5.079820e-02 0
8.449653e-01 -5.272796e-02 0
8.600995e-01 -5.411195e-02 0
8.751808e-01 -5.495649e-02 0
8.901108e-01 -5.528621e-02 0
9.048033e-01 -5.513974e-02 0
9.191856e-01 -5.456536e-02 0
9.331970e-01 -5.361691e-02 0
9.467891e-01 -5.235036e-02 0
9.599239e-01 -5.082104e-02 0
9.725739e-01 -4.908159e-02 0
9.847199e-01 -4.718064e-02 0
9.963506e-01 -4.516190e-02 0
1.007461e+00 -4.306386e-02 0
1.018053e+00 -4.091972e-02 0
1.028130e+00 -3.875755e-02 0
1.037702e+00 -3.660074e-02 0
1.046782e+00 -3.446834e-02 0
1.055383e+00 -3.237567e-02 0
1.063522e+00 -3.033472e-02 0
1.071216e+00 -2.835470e-02 0
1.078483e+00 -2.644246e-02 0
1.085340e+00 -2.460292e-02 0
1.091808e+00 -2.283939e-02 0
1.097905e+00 -2.115391e-02 0
1.103648e+00 -1.954750e-02 0
1.109056e+00 -1.802037e-02 0
1.114146e+00 -1.657211e-02 0
1.118934e+00 -1.520185e-02 0
1.123437e+00 -1.390840e-02 0
1.127668e+00 -1.269032e-02 0
1.131641e+00 -1.154590e-02 0
1.135366e+00 -1.047296e-02 0
1.138853e+00 -9.468099e-03 0
1.142106e+00 -8.525603e-03 0
1.145131e+00 -7.637087e-03 0
1.147938e+00 -6.793592e-03 0
1.150531e+00 -5.986344e-03 0
1.152918e+00 -5.206476e-03 0
1.155105e+00 -4.445896e-03 0
1.157097e+00 -3.697561e-03 0
1.158897e+00 -2.954783e-03 0
1.160501e+00 -2.208376e-03 0
1.161891e+00 -1.453852e-03 0
1.163056e+00 -7.035285e-04 0
1.164002e+00 3.558282e-05 0
1.164747e+00 7.838624e-04 0
1.165302e+00 1.557750e-03 0
1.165668e+00 2.358510e-03 0
1.165842e+00 3.188270e-03 0
1.165817e+00 4.048312e-03 0
1.165591e+00 4.938403e-03 0
1.165157e+00 5.856360e-03 0
1.164513e+00 6.797621e-03 0
1.163654e+00 7.754666e-03 0
1.162580e+00 8.716190e-03 0
1.161291e+00 9.665857e-03 0
1.159787e+00 1.058054e-02 0
1.158065e+00 1.142825e-02 0
1.156115e+00 1.216748e-02 0
1.153901e+00 1.276296e-02 0
1.151340e+00 1.310262e-02 0
1.151340e+00 1.318352e-02 0
1.174456e+00 -5.010975e-04 0
1.174456e+00 -4.801552e-04 0
1.174590e+00 -4.005671e-04 0
1.174710e+00 -2.427989e-04 0
1.174810e+00 -1.149578e-06 0
1.174879e+00 3.327035e-04 0
1.174907e+00 7.700318e-04 0
1.174880e+00 1.324182e-03 0
1.174784e+00 2.011644e-03 0
1.174599e+00 2.852085e-03 0
1.174306e+00 3.868522e-03 0
1.173880e+00 5.087639e-03 0
1.173293e+00 6.540233e-03 0
1.172513e+00 8.261849e-03 0
1.171504e+00 1.029365e-02 0
1.170225e+00 1.268361e-02 0
1.168631e+00 1.548808e-02 0
1.166670e+00 1.877387e-02 0
1.164286e+00 2.262093e-02 0
1.161414e+00 2.712583e-02 0
1.157980e+00 3.240611e-02 0
1.153901e+00 3.860584e-02 0
1.149078e+00 4.590261e-02 0
1.143389e+00 5.451625e-02 0
1.136677e+00 6.471933e-02 0
1.128727e+00 7.684921e-02 0
1.119214e+00 9.131859e-02 0
1.107614e+00 1.086135e-01 0
1.093007e+00 1.292400e-01 0
1.073700e+00 1.534946e-01 0
1.046510e+00 1.806830e-01 0
1.005747e+00 2.068361e-01 0
9.436581e-01 2.195824e-01 0
8.649718e-01 1.973444e-01 0
8.290333e-01 1.494873e-01 0
8.163403e-01 1.043840e-01 0
8.125474e-01 6.890156e-02 0
8.110317e-01 4.245877e-02 0
8.094120e-01 2.340598e-02 0
8.073205e-01 1.032475e-02 0
8.046461e-01 1.732387e-03 0
8.016087e-01 -3.797014e-03 0
7.986312e-01 -7.249051e-03 0
7.959499e-01 -9.320503e-03 0
7.936511e-01 -1.050474e-02 0
7.917317e-01 -1.113086e-02 0
7.901450e-01 -1.140847e-02 0
7.888296e-01 -1.146544e-02 0
7.877269e-01 -1.137647e-02 0
7.867897e-01 -1.118394e-02 0
7.859852e-01 -1.091214e-02 0
7.852941e-01 -1.057644e-02 0
7.847080e-01 -1.018846e-02 0
7.842258e-01 -9.758380e-03 0
7.838508e-01 -9.295823e-03 0
7.835882e-01 -8.809880e-03 0
7.834440e-01 -8.309059e-03 0
7.834241e-01 -7.801247e-03 0
7.835340e-01 -7.293726e-03 0
7.837790e-01 -6.793186e-03 0
7.841646e-01 -6.305678e-03 0
7.846965e-01 -5.836507e-03 0
7.853813e-01 -5.390066e-03 0
7.862268e-01 -4.969670e-03 0