<?xml version="1.0"?>
<VTKFile type="StructuredGrid">
<StructuredGrid WholeExtent="0 158 0 30 0 0 ">
<Piece Extent="0 158 0 30 0 0 ">
<Points>
<DataArray type="Float64" format="ascii" NumberOfComponents="3">
0.000000e+00 0.000000e+00 0.000000e+00
3.164557e-02 0.000000e+00 0.000000e+00
6.329114e-02 0.000000e+00 0.000000e+00
9.493671e-02 0.000000e+00 0.000000e+00
1.265823e-01 0.000000e+00 0.000000e+00
1.582278e-01 0.000000e+00 0.000000e+00
1.898734e-01 0.000000e+00 0.000000e+00
2.215190e-01 0.000000e+00 0.000000e+00
2.531646e-01 0.000000e+00 0.000000e+00
2.848101e-01 0.000000e+00 0.000000e+00
3.164557e-01 0.000000e+00 0.000000e+00
3.481013e-01 0.000000e+00 0.000000e+00
3.797468e-01 0.000000e+00 0.000000e+00
4.113924e-01 0.000000e+00 0.000000e+00
4.430380e-01 0.000000e+00 0.000000e+00
4.746835e-01 0.000000e+00 0.000000e+00
5.063291e-01 0.000000e+00 0.000000e+00
5.379747e-01 0.000000e+00 0.000000e+00
5.696203e-01 0.000000e+00 0.000000e+00
6.012658e-01 0.000000e+00 0.000000e+00
6.329114e-01 0.000000e+00 0.000000e+00
6.645570e-01 0.000000e+00 0.000000e+00
6.962025e-01 0.000000e+00 0.000000e+00
7.278481e-01 0.000000e+00 0.000000e+00
7.594937e-01 0.000000e+00 0.000000e+00
7.911392e-01 0.000000e+00 0.000000e+00
8.227848e-01 0.000000e+00 0.000000e+00
8.544304e-01 0.000000e+00 0.000000e+00
8.860759e-01 0.000000e+00 0.000000e+00
9.177215e-01 0.000000e+00 0.000000e+00
9.493671e-01 0.000000e+00 0.000000e+00
9.810127e-01 0.000000e+00 0.000000e+00
1.012658e+00 0.000000e+00 0.000000e+00
1.044304e+00 0.000000e+00 0.000000e+00
1.075949e+00 0.000000e+00 0.000000e+00
1.107595e+00 0.000000e+00 0.000000e+00
1.139241e+00 0.000000e+00 0.000000e+00
1.170886e+00 0.000000e+00 0.000000e+00
1.202532e+00 0.000000e+00 0.000000e+00
1.234177e+00 0.000000e+00 0.000000e+00
1.265823e+00 0.000000e+00 0.000000e+00
1.297468e+00 0.000000e+00 0.000000e+00
1.329114e+00 0.000000e+00 0.000000e+00
1.360759e+00 0.000000e+00 0.000000e+00
1.392405e+00 0.000000e+00 0.000000e+00
1.424051e+00 0.000000e+00 0.000000e+00
1.455696e+00 0.000000e+00 0.000000e+00
1.487342e+00 0.000000e+00 0.000000e+00
1.518987e+00 0.000000e+00 0.000000e+00
1.550633e+00 0.000000e+00 0.000000e+00
1.582278e+00 0.000000e+00 0.000000e+00
1.613924e+00 0.000000e+00 0.000000e+00
1.645570e+00 0.000000e+00 0.000000e+00
1.677215e+00 0.000000e+00 0.000000e+00
1.708861e+00 0.000000e+00 0.000000e+00
1.740506e+00 0.000000e+00 0.000000e+00
1.772152e+00 0.000000e+00 0.000000e+00
1.803797e+00 0.000000e+00 0.000000e+00
1.835443e+00 0.000000e+00 0.000000e+00
1.867089e+00 0.000000e+00 0.000000e+00
1.898734e+00 0.000000e+00 0.000000e+00
1.930380e+00 0.000000e+00 0.000000e+00
1.962025e+00 0.000000e+00 0.000000e+00
1.993671e+00 0.000000e+00 0.000000e+00
2.025316e+00 0.000000e+00 0.000000e+00
2.056962e+00 0.000000e+00 0.000000e+00
2.088608e+00 0.000000e+00 0.000000e+00
2.120253e+00 0.000000e+00 0.000000e+00
2.151899e+00 0.000000e+00 0.000000e+00
2.183544e+00 0.000000e+00 0.000000e+00
2.215190e+00 0.000000e+00 0.000000e+00
2.246835e+00 0.000000e+00 0.000000e+00
2.278481e+00 0.000000e+00 0.000000e+00
2.310127e+00 0.000000e+00 0.000000e+00
2.341772e+00 0.000000e+00 0.000000e+00
2.373418e+00 0.000000e+00 0.000000e+00
2.405063e+00 0.000000e+00 0.000000e+00
2.436709e+00 0.000000e+00 0.000000e+00
2.468354e+00 0.000000e+00 0.000000e+00
2.500000e+00 0.000000e+00 0.000000e+00
2.531646e+00 0.000000e+00 0.000000e+00
2.563291e+00 0.000000e+00 0.000000e+00
2.594937e+00 0.000000e+00 0.000000e+00
2.626582e+00 0.000000e+00 0.000000e+00
2.658228e+00 0.000000e+00 0.000000e+00
2.689873e+00 0.000000e+00 0.000000e+00
2.721519e+00 0.000000e+00 0.000000e+00
2.753165e+00 0.000000e+00 0.000000e+00
2.784810e+00 0.000000e+00 0.000000e+00
2.816456e+00 0.000000e+00 0.000000e+00
2.848101e+00 0.000000e+00 0.000000e+00
2.879747e+00 0.000000e+00 0.000000e+00
2.911392e+00 0.000000e+00 0.000000e+00
2.943038e+00 0.000000e+00 0.000000e+00
2.974684e+00 0.000000e+00 0.000000e+00
3.006329e+00 0.000000e+00 0.000000e+00
3.037975e+00 0.000000e+00 0.000000e+00
3.069620e+00 0.000000e+00 0.000000e+00
3.101266e+00 0.000000e+00 0.000000e+00
3.132911e+00 0.000000e+00 0.000000e+00
3.164557e+00 0.000000e+00 0.000000e+00
3.196203e+00 0.000000e+00 0.000000e+00
3.227848e+00 0.000000e+00 0.000000e+00
3.259494e+00 0.000000e+00 0.000000e+00
3.291139e+00 0.000000e+00 0.000000e+00
3.322785e+00 0.000000e+00 0.000000e+00
3.354430e+00 0.000000e+00 0.000000e+00
3.386076e+00 0.000000e+00 0.000000e+00
3.417722e+00 0.000000e+00 0.000000e+00
3.449367e+00 0.000000e+00 0.000000e+00
3.481013e+00 0.000000e+00 0.000000e+00
3.512658e+00 0.000000e+00 0.000000e+00
3.544304e+00 0.000000e+00 0.000000e+00
3.575949e+00 0.000000e+00 0.000000e+00
3.607595e+00 0.000000e+00 0.000000e+00
3.639241e+00 0.000000e+00 0.000000e+00
3.670886e+00 0.000000e+00 0.000000e+00
3.702532e+00 0.000000e+00 0.000000e+00
3.734177e+00 0.000000e+00 0.000000e+00
3.765823e+00 0.000000e+00 0.000000e+00
3.797468e+00 0.000000e+00 0.000000e+00
3.829114e+00 0.000000e+00 0.000000e+00
3.860759e+00 0.000000e+00 0.000000e+00
3.892405e+00 0.000000e+00 0.000000e+00
3.924051e+00 0.000000e+00 0.000000e+00
3.955696e+00 0.000000e+00 0.000000e+00
3.987342e+00 0.000000e+00 0.000000e+00
4.018987e+00 0.000000e+00 0.000000e+00
4.050633e+00 0.000000e+00 0.000000e+00
4.082278e+00 0.000000e+00 0.000000e+00
4.113924e+00 0.000000e+00 0.000000e+00
4.145570e+00 0.000000e+00 0.000000e+00
4.177215e+00 0.000000e+00 0.000000e+00
4.208861e+00 0.000000e+00 0.000000e+00
4.240506e+00 0.000000e+00 0.000000e+00
4.272152e+00 0.000000e+00 0.000000e+00
4.303797e+00 0.000000e+00 0.000000e+00
4.335443e+00 0.000000e+00 0.000000e+00
4.367089e+00 0.000000e+00 0.000000e+00
4.398734e+00 0.000000e+00 0.000000e+00
4.430380e+00 0.000000e+00 0.000000e+00
4.462025e+00 0.000000e+00 0.000000e+00
4.493671e+00 0.000000e+00 0.000000e+00
4.525316e+00 0.000000e+00 0.000000e+00
4.556962e+00 0.000000e+00 0.000000e+00
4.588608e+00 0.000000e+00 0.000000e+00
4.620253e+00 0.000000e+00 0.000000e+00
4.651899e+00 0.000000e+00 0.000000e+00
4.683544e+00 0.000000e+00 0.000000e+00
4.715190e+00 0.000000e+00 0.000000e+00
4.746835e+00 0.000000e+00 0.000000e+00
4.778481e+00 0.000000e+00 0.000000e+00
4.810127e+00 0.000000e+00 0.000000e+00
4.841772e+00 0.000000e+00 0.000000e+00
4.873418e+00 0.000000e+00 0.000000e+00
4.905063e+00 0.000000e+00 0.000000e+00
4.936709e+00 0.000000e+00 0.000000e+00
4.968354e+00 0.000000e+00 0.000000e+00
5.000000e+00 0.000000e+00 0.000000e+00
0.000000e+00 3.333333e-02 0.000000e+00
3.164557e-02 3.333333e-02 0.000000e+00
6.329114e-02 3.333333e-02 0.000000e+00
9.493671e-02 3.333333e-02 0.000000e+00
1.265823e-01 3.333333e-02 0.000000e+00
1.582278e-01 3.333333e-02 0.000000e+00
1.898734e-01 3.333333e-02 0.000000e+00
2.215190e-01 3.333333e-02 0.000000e+00
2.531646e-01 3.333333e-02 0.000000e+00
2.848101e-01 3.333333e-02 0.000000e+00
3.164557e-01 3.333333e-02 0.000000e+00
3.481013e-01 3.333333e-02 0.000000e+00
3.797468e-01 3.333333e-02 0.000000e+00
4.113924e-01 3.333333e-02 0.000000e+00
4.430380e-01 3.333333e-02 0.000000e+00
4.746835e-01 3.333333e-02 0.000000e+00
5.063291e-01 3.333333e-02 0.000000e+00
5.379747e-01 3.333333e-02 0.000000e+00
5.696203e-01 3.333333e-02 0.000000e+00
6.012658e-01 3.333333e-02 0.000000e+00
6.329114e-01 3.333333e-02 0.000000e+00
6.645570e-01 3.333333e-02 0.000000e+00
6.962025e-01 3.333333e-02 0.000000e+00
7.278481e-01 3.333333e-02 0.000000e+00
7.594937e-01 3.333333e-02 0.000000e+00
7.911392e-01 3.333333e-02 0.000000e+00
8.227848e-01 3.333333e-02 0.000000e+00
8.544304e-01 3.333333e-02 0.000000e+00
8.860759e-01 3.333333e-02 0.000000e+00
9.177215e-01 3.333333e-02 0.000000e+00
9.493671e-01 3.333333e-02 0.000000e+00
9.810127e-01 3.333333e-02 0.000000e+00
1.012658e+00 3.333333e-02 0.000000e+00
1.044304e+00 3.333333e-02 0.000000e+00
1.075949e+00 3.333333e-02 0.000000e+00
1.107595e+00 3.333333e-02 0.000000e+00
1.139241e+00 3.333333e-02 0.000000e+00
1.170886e+00 3.333333e-02 0.000000e+00
1.202532e+00 3.333333e-02 0.000000e+00
1.234177e+00 3.333333e-02 0.000000e+00
1.265823e+00 3.333333e-02 0.000000e+00
1.297468e+00 3.333333e-02 0.000000e+00
1.329114e+00 3.333333e-02 0.000000e+00
1.360759e+00 3.333333e-02 0.000000e+00
1.392405e+00 3.333333e-02 0.000000e+00
1.424051e+00 3.333333e-02 0.000000e+00
1.455696e+00 3.333333e-02 0.000000e+00
1.487342e+00 3.333333e-02 0.000000e+00
1.518987e+00 3.333333e-02 0.000000e+00
1.550633e+00 3.333333e-02 0.000000e+00
1.582278e+00 3.333333e-02 0.000000e+00
1.613924e+00 3.333333e-02 0.000000e+00
1.645570e+00 3.333333e-02 0.000000e+00
1.677215e+00 3.333333e-02 0.000000e+00
1.708861e+00 3.333333e-02 0.000000e+00
1.740506e+00 3.333333e-02 0.000000e+00
1.772152e+00 3.333333e-02 0.000000e+00
1.803797e+00 3.333333e-02 0.000000e+00
1.835443e+00 3.333333e-02 0.000000e+00
1.867089e+00 3.333333e-02 0.000000e+00
1.898734e+00 3.333333e-02 0.000000e+00
1.930380e+00 3.333333e-02 0.000000e+00
1.962025e+00 3.333333e-02 0.000000e+00
1.993671e+00 3.333333e-02 0.000000e+00
2.025316e+00 3.333333e-02 0.000000e+00
2.056962e+00 3.333333e-02 0.000000e+00
2.088608e+00 3.333333e-02 0.000000e+00
2.120253e+00 3.333333e-02 0.000000e+00
2.151899e+00 3.333333e-02 0.000000e+00
2.183544e+00 3.333333e-02 0.000000e+00
2.215190e+00 3.333333e-02 0.000000e+00
2.246835e+00 3.333333e-02 0.000000e+00
2.278481e+00 3.333333e-02 0.000000e+00
2.310127e+00 3.333333e-02 0.000000e+00
2.341772e+00 3.333333e-02 0.000000e+00
2.373418e+00 3.333333e-02 0.000000e+00
2.405063e+00 3.333333e-02 0.000000e+00
2.436709e+00 3.333333e-02 0.000000e+00
2.468354e+00 3.333333e-02 0.000000e+00
2.500000e+00 3.333333e-02 0.000000e+00
2.531646e+00 3.333333e-02 0.000000e+00
2.563291e+00 3.333333e-02 0.000000e+00
2.594937e+00 3.333333e-02 0.000000e+00
2.626582e+00 3.333333e-02 0.000000e+00
2.658228e+00 3.333333e-02 0.000000e+00
2.689873e+00 3.333333e-02 0.000000e+00
2.721519e+00 3.333333e-02 0.000000e+00
2.753165e+00 3.333333e-02 0.000000e+00
2.784810e+00 3.333333e-02 0.000000e+00
2.816456e+00 3.333333e-02 0.000000e+00
2.848101e+00 3.333333e-02 0.000000e+00
2.879747e+00 3.333333e-02 0.000000e+00
[...]
<PointData>
<DataArray Name="Velocity" type="Float64" format="ascii" NumberOfComponents="3">
0.000000e+00 0.000000e+00 0
0.000000e+00 0.000000e+00 0
0.000000e+00 0.000000e+00 0
0.000000e+00 0.000000e+00 0
0.000000e+00 0.000000e+00 0
0.000000e+00 0.000000e+00 0
0.000000e+00 0.000000e+00 0
0.000000e+00 0.000000e+00 0
0.000000e+00 0.000000e+00 0
0.000000e+00 0.000000e+00 0
0.000000e+00 0.000000e+00 0
0.000000e+00 0.000000e+00 0
0.000000e+00 0.000000e+00 0
0.000000e+00 0.000000e+00 0
0.000000e+00 0.000000e+00 0
0.000000e+00 0.000000e+00 0
0.000000e+00 0.000000e+00 0
0.000000e+00 0.000000e+00 0
0.000000e+00 0.000000e+00 0
2.191121e-17 0.000000e+00 0
0.000000e+00 0.000000e+00 0
0.000000e+00 0.000000e+00 0
0.000000e+00 0.000000e+00 0
-2.345223e-17 0.000000e+00 0
0.000000e+00 0.000000e+00 0
0.000000e+00 0.000000e+00 0
0.000000e+00 0.000000e+00 0
2.584675e-18 0.000000e+00 0
0.000000e+00 0.000000e+00 0
0.000000e+00 0.000000e+00 0
0.000000e+00 0.000000e+00 0
-2.612194e-17 0.000000e+00 0
0.000000e+00 0.000000e+00 0
0.000000e+00 0.000000e+00 0
0.000000e+00 0.000000e+00 0
0.000000e+00 0.000000e+00 0
0.000000e+00 0.000000e+00 0
0.000000e+00 0.000000e+00 0
2.660154e-17 0.000000e+00 0
0.000000e+00 0.000000e+00 0
0.000000e+00 0.000000e+00 0
0.000000e+00 0.000000e+00 0
0.000000e+00 0.000000e+00 0
0.000000e+00 0.000000e+00 0
0.000000e+00 0.000000e+00 0
0.000000e+00 0.000000e+00 0
-3.127019e-19 0.000000e+00 0
0.000000e+00 0.000000e+00 0
0.000000e+00 0.000000e+00 0
0.000000e+00 0.000000e+00 0
0.000000e+00 0.000000e+00 0
0.000000e+00 0.000000e+00 0
0.000000e+00 0.000000e+00 0
0.000000e+00 0.000000e+00 0
1.687129e-17 0.000000e+00 0
0.000000e+00 0.000000e+00 0
0.000000e+00 0.000000e+00 0
0.000000e+00 0.000000e+00 0
0.000000e+00 0.000000e+00 0
0.000000e+00 0.000000e+00 0
0.000000e+00 0.000000e+00 0
0.000000e+00 0.000000e+00 0
2.647623e-17 0.000000e+00 0
0.000000e+00 0.000000e+00 0
0.000000e+00 0.000000e+00 0
0.000000e+00 0.000000e+00 0
0.000000e+00 0.000000e+00 0
0.000000e+00 0.000000e+00 0
0.000000e+00 0.000000e+00 0
0.000000e+00 0.000000e+00 0
0.000000e+00 0.000000e+00 0
0.000000e+00 0.000000e+00 0
0.000000e+00 0.000000e+00 0
0.000000e+00 0.000000e+00 0
0.000000e+00 0.000000e+00 0
0.000000e+00 0.000000e+00 0
0.000000e+00 0.000000e+00 0
0.000000e+00 0.000000e+00 0
0.000000e+00 0.000000e+00 0
0.000000e+00 0.000000e+00 0
0.000000e+00 0.000000e+00 0
0.000000e+00 0.000000e+00 0
0.000000e+00 0.000000e+00 0
0.000000e+00 0.000000e+00 0
0.000000e+00 0.000000e+00 0
0.000000e+00 0.000000e+00 0
0.000000e+00 0.000000e+00 0
0.000000e+00 0.000000e+00 0
0.000000e+00 0.000000e+00 0
0.000000e+00 0.000000e+00 0
0.000000e+00 0.000000e+00 0
0.000000e+00 0.000000e+00 0
0.000000e+00 0.000000e+00 0
0.000000e+00 0.000000e+00 0
0.000000e+00 0.000000e+00 0
0.000000e+00 0.000000e+00 0
0.000000e+00 0.000000e+00 0
0.000000e+00 0.000000e+00 0
0.000000e+00 0.000000e+00 0
0.000000e+00 0.000000e+00 0
0.000000e+00 0.000000e+00 0
0.000000e+00 0.000000e+00 0
0.000000e+00 0.000000e+00 0
0.000000e+00 0.000000e+00 0
0.000000e+00 0.000000e+00 0
0.000000e+00 0.000000e+00 0
0.000000e+00 0.000000e+00 0
0.000000e+00 0.000000e+00 0
0.000000e+00 0.000000e+00 0
0.000000e+00 0.000000e+00 0
0.000000e+00 0.000000e+00 0
0.000000e+00 0.000000e+00 0
0.000000e+00 0.000000e+00 0
0.000000e+00 0.000000e+00 0
0.000000e+00 0.000000e+00 0
0.000000e+00 0.000000e+00 0
0.000000e+00 0.000000e+00 0
0.000000e+00 0.000000e+00 0
0.000000e+00 0.000000e+00 0
0.000000e+00 0.000000e+00 0
0.000000e+00 0.000000e+00 0
0.000000e+00 0.000000e+00 0
0.000000e+00 0.000000e+00 0
0.000000e+00 0.000000e+00 0
0.000000e+00 0.000000e+00 0
0.000000e+00 0.000000e+00 0
0.000000e+00 0.000000e+00 0
0.000000e+00 0.000000e+00 0
0.000000e+00 0.000000e+00 0
0.000000e+00 0.000000e+00 0
0.000000e+00 0.000000e+00 0
0.000000e+00 0.000000e+00 0
0.000000e+00 0.000000e+00 0
0.000000e+00 0.000000e+00 0
0.000000e+00 0.000000e+00 0
0.000000e+00 0.000000e+00 0
0.000000e+00 0.000000e+00 0
0.000000e+00 0.000000e+00 0
0.000000e+00 0.000000e+00 0
0.000000e+00 0.000000e+00 0
0.000000e+00 0.000000e+00 0
0.000000e+00 0.000000e+00 0
0.000000e+00 0.000000e+00 0
0.000000e+00 0.000000e+00 0
0.000000e+00 0.000000e+00 0
0.000000e+00 0.000000e+00 0
0.000000e+00 0.000000e+00 0
0.000000e+00 0.000000e+00 0
0.000000e+00 0.000000e+00 0
0.000000e+00 0.000000e+00 0
0.000000e+00 0.000000e+00 0
0.000000e+00 0.000000e+00 0
0.000000e+00 0.000000e+00 0
0.000000e+00 0.000000e+00 0
0.000000e+00 0.000000e+00 0
0.000000e+00 0.000000e+00 0
0.000000e+00 0.000000e+00 0
0.000000e+00 0.000000e+00 0
0.000000e+00 0.000000e+00 0
1.362248e+00 -8.974467e-05 0
1.362248e+00 -9.721058e-05 0
1.362331e+00 -9.483651e-05 0
1.362395e+00 -6.392726e-05 0
1.362427e+00 -1.638810e-05 0
1.362414e+00 4.203377e-05 0
1.362342e+00 1.139111e-04 0
1.362193e+00 2.032881e-04 0
1.361951e+00 3.131020e-04 0
1.361594e+00 4.462646e-04 0
1.361099e+00 6.060725e-04 0
1.360438e+00 7.961676e-04 0
1.359580e+00 1.020579e-03 0
1.358492e+00 1.283991e-03 0
1.357133e+00 1.591752e-03 0
1.355459e+00 1.949923e-03 0
1.353418e+00 2.365439e-03 0
1.350953e+00 2.846390e-03 0
1.347996e+00 3.402448e-03 0
1.344472e+00 4.045139e-03 0
1.340291e+00 4.788193e-03 0
1.335351e+00 5.648219e-03 0
1.329531e+00 6.644965e-03 0
1.322691e+00 7.801349e-03 0
1.314666e+00 9.143105e-03 0
1.305263e+00 1.069637e-02 0
1.294265e+00 1.248164e-02 0
1.281432e+00 1.450086e-02 0
1.266532e+00 1.671225e-02 0
1.249387e+00 1.898722e-02 0
1.229990e+00 2.105122e-02 0
1.208690e+00 2.244027e-02 0
1.186442e+00 2.257065e-02 0
1.164910e+00 2.106419e-02 0
1.145944e+00 1.817481e-02 0
1.130493e+00 1.463674e-02 0
1.118623e+00 1.112533e-02 0
1.109912e+00 8.031631e-03 0
1.103778e+00 5.492551e-03 0
1.099658e+00 3.490544e-03 0
1.097079e+00 1.929297e-03 0
1.095674e+00 6.031748e-04 0
1.095164e+00 -6.101662e-04 0
1.095364e+00 -1.621085e-03 0
1.096104e+00 -2.370176e-03 0
1.097227e+00 -2.881403e-03 0
1.098600e+00 -3.188591e-03 0
1.100113e+00 -3.327356e-03 0
1.101674e+00 -3.331088e-03 0
1.103212e+00 -3.229277e-03 0
1.104671e+00 -3.047047e-03 0
1.106006e+00 -2.805280e-03 0
1.107186e+00 -2.521033e-03 0
1.108188e+00 -2.208075e-03 0
1.108995e+00 -1.877457e-03 0
1.109598e+00 -1.537811e-03 0
1.109994e+00 -1.195170e-03 0
1.110182e+00 -8.522146e-04 0
1.110183e+00 -5.183659e-04 0
1.110019e+00 -2.204784e-04 0
1.109709e+00 1.847863e-06 0
1.109264e+00 1.579269e-04 0
1.108698e+00 2.878333e-04 0
1.108022e+00 4.036376e-04 0
1.107245e+00 5.097656e-04 0
1.106373e+00 6.082277e-04 0
1.105412e+00 7.001355e-04 0
1.104368e+00 7.862047e-04 0
1.103246e+00 8.669427e-04 0
1.102050e+00 9.427290e-04 0
1.100785e+00 1.013861e-03 0
1.099454e+00 1.080593e-03 0
1.098062e+00 1.143162e-03 0
1.096611e+00 1.201808e-03 0
1.095106e+00 1.256768e-03 0
1.093550e+00 1.308254e-03 0
1.091946e+00 1.356444e-03 0
1.090297e+00 1.401474e-03 0
1.088605e+00 1.443454e-03 0
1.086873e+00 1.482495e-03 0
1.085104e+00 1.518726e-03 0
1.083300e+00 1.552300e-03 0
1.081463e+00 1.583384e-03 0
1.079597e+00 1.612136e-03 0
1.077702e+00 1.638688e-03 0
1.075781e+00 1.663135e-03 0
1.073836e+00 1.685544e-03 0
1.071868e+00 1.705971e-03 0
1.069879e+00 1.724488e-03 0
1.067871e+00 1.741193e-03 0
1.065845e+00 1.756206e-03 0
1.063804e+00 1.769647e-03 0
1.061747e+00 1.781615e-03 0
1.059678e+00 1.792180e-03 0
1.057596e+00 1.801383e-03 0
1.055503e+00 1.809260e-03 0
1.053401e+00 1.815858e-03 0
1.051290e+00 1.821240e-03 0
1.049171e+00 1.825488e-03 0
1.047046e+00 1.828681e-03 0
1.044916e+00 1.830889e-03 0
1.042780e+00 1.832160e-03 0
1.040641e+00 1.832527e-03 0
1.038499e+00 1.832016e-03 0
1.036355e+00 1.830653e-03 0
1.034209e+00 1.828476e-03 0
1.032062e+00 1.825533e-03 0
1.029915e+00 1.821875e-03 0
1.027769e+00 1.817551e-03 0
1.025624e+00 1.812596e-03 0
1.023480e+00 1.807034e-03 0
1.021339e+00 1.800881e-03 0
1.019201e+00 1.794155e-03 0
1.017066e+00 1.786875e-03 0
1.014935e+00 1.779066e-03 0
1.012809e+00 1.770752e-03 0
1.010687e+00 1.761959e-03 0
1.008570e+00 1.752710e-03 0
1.006459e+00 1.743022e-03 0
1.004354e+00 1.732908e-03 0
1.002256e+00 1.722378e-03 0
1.000164e+00 1.711439e-03 0
9.980802e-01 1.700097e-03 0
9.960036e-01 1.688362e-03 0
9.939350e-01 1.676244e-03 0
9.918747e-01 1.663750e-03 0
9.898232e-01 1.650887e-03 0
9.877808e-01 1.637660e-03 0
9.857478e-01 1.624069e-03 0
9.837246e-01 1.610116e-03 0
9.817115e-01 1.595803e-03 0
9.797089e-01 1.581131e-03 0
9.777171e-01 1.566101e-03 0
9.757365e-01 1.550711e-03 0
9.737675e-01 1.534959e-03 0
9.718104e-01 1.518839e-03 0
9.698655e-01 1.502344e-03 0
9.679333e-01 1.485466e-03 0
9.660141e-01 1.468192e-03 0
9.641083e-01 1.450510e-03 0
9.622164e-01 1.432401e-03 0
9.603387e-01 1.413842e-03 0
9.584758e-01 1.394806e-03 0
9.566282e-01 1.375256e-03 0
9.547963e-01 1.355147e-03 0
9.529808e-01 1.334413e-03 0
9.511822e-01 1.312976e-03 0
9.494014e-01 1.290726e-03 0
9.476392e-01 1.267499e-03 0
9.458966e-01 1.243074e-03 0
9.441750e-01 1.217120e-03 0
9.424759e-01 1.189137e-03 0
9.408017e-01 1.158316e-03 0
9.391553e-01 1.123263e-03 0
9.375414e-01 1.081004e-03 0
9.359669e-01 1.026556e-03 0
9.344431e-01 8.962798e-04 0
9.329872e-01 1.131589e-03 0
9.329872e-01 1.466180e-03 0
2.024709e+00 -1.766229e-04 0
2.024709e+00 -1.749692e-04 0
2.024779e+00 -1.547679e-04 0
2.024834e+00 -1.020697e-04 0
2.024867e+00 -2.023568e-05 0
2.024865e+00 9.021603e-05 0
2.024813e+00 2.326979e-04 0
2.024697e+00 4.113822e-04 0
2.024500e+00 6.312526e-04 0
2.024203e+00 8.980741e-04 0
2.023787e+00 1.218330e-03 0
2.023227e+00 1.599260e-03 0
2.022496e+00 2.049145e-03 0
2.021565e+00 2.577395e-03 0
2.020398e+00 3.194658e-03 0
2.018955e+00 3.913022e-03 0
2.017194e+00 4.746418e-03 0
2.015062e+00 5.711237e-03 0
2.012501e+00 6.826863e-03 0
2.009446e+00 8.116314e-03 0
2.005819e+00 9.607414e-03 0
2.001532e+00 1.133362e-02 0
1.996479e+00 1.333483e-02 0
1.990537e+00 1.565827e-02 0
1.983560e+00 1.835767e-02 0
1.975372e+00 2.148933e-02 0
1.965763e+00 2.510177e-02 0
1.954484e+00 2.921167e-02 0
1.941251e+00 3.375409e-02 0
1.925760e+00 3.849060e-02 0
1.907777e+00 4.286695e-02 0
1.887349e+00 4.587022e-02 0
1.865290e+00 4.611545e-02 0
1.843825e+00 4.265860e-02 0
1.825898e+00 3.625291e-02 0
1.812267e+00 2.877803e-02 0
1.802408e+00 2.167852e-02 0
1.795475e+00 1.563580e-02 0
1.790700e+00 1.079969e-02 0
1.787489e+00 7.056766e-03 0
1.785406e+00 4.196797e-03 0
1.784122e+00 2.016902e-03 0
1.783299e+00 3.269870e-04 0
1.782710e+00 -9.893645e-04 0
1.782272e+00 -1.962038e-03 0
1.781931e+00 -2.630187e-03 0
1.781650e+00 -3.040464e-03 0
1.781402e+00 -3.238351e-03 0
1.781164e+00 -3.265000e-03 0
1.780920e+00 -3.156253e-03 0
1.780653e+00 -2.942586e-03 0
1.780353e+00 -2.649467e-03 0
1.780008e+00 -2.297908e-03 0
1.779611e+00 -1.905195e-03 0
1.779155e+00 -1.485808e-03 0
1.778636e+00 -1.052104e-03 0
1.778056e+00 -6.153283e-04 0
1.777426e+00 -1.994687e-04 0
1.776751e+00 1.718466e-04 0
1.776033e+00 4.996852e-04 0
1.775258e+00 7.957596e-04 0
1.774392e+00 1.064410e-03 0
1.773431e+00 1.307567e-03 0
1.772378e+00 1.530633e-03 0
1.771238e+00 1.737475e-03 0
1.770015e+00 1.930586e-03 0
1.768715e+00 2.111626e-03 0
1.767340e+00 2.281764e-03 0
1.765896e+00 2.441875e-03 0
1.764386e+00 2.592640e-03 0
1.762813e+00 2.734621e-03 0
1.761181e+00 2.868308e-03 0
1.759493e+00 2.994160e-03 0
1.757752e+00 3.112610e-03 0
1.755960e+00 3.224063e-03 0
1.754122e+00 3.328883e-03 0
1.752238e+00 3.427382e-03 0
1.750311e+00 3.519834e-03 0
1.748345e+00 3.606491e-03 0
1.746340e+00 3.687606e-03 0
1.744300e+00 3.763447e-03 0
1.742226e+00 3.834292e-03 0
1.740120e+00 3.900417e-03 0
1.737984e+00 3.962072e-03 0
1.735820e+00 4.019473e-03 0
1.733629e+00 4.072801e-03 0
1.731413e+00 4.122213e-03 0
1.729174e+00 4.167864e-03 0
1.726912e+00 4.209929e-03 0
1.724630e+00 4.248598e-03 0
1.722329e+00 4.284069e-03 0
1.720009e+00 4.316524e-03 0
1.717673e+00 4.346114e-03 0
1.715320e+00 4.372961e-03 0
1.712953e+00 4.397169e-03 0
1.710573e+00 4.418844e-03 0
1.708179e+00 4.438102e-03 0
1.705774e+00 4.455073e-03 0
1.703358e+00 4.469889e-03 0
1.700932e+00 4.482672e-03 0
1.698496e+00 4.493527e-03 0
1.696053e+00 4.502542e-03 0
1.693601e+00 4.509789e-03 0
1.691142e+00 4.515334e-03 0
1.688677e+00 4.519249e-03 0
1.686207e+00 4.521615e-03 0
1.683731e+00 4.522518e-03 0
1.681250e+00 4.522041e-03 0
1.678765e+00 4.520257e-03 0
1.676278e+00 4.517220e-03 0
1.673787e+00 4.512976e-03 0
1.671293e+00 4.507563e-03 0
1.668798e+00 4.501027e-03 0
1.666301e+00 4.493414e-03 0
1.663803e+00 4.484772e-03 0
1.661304e+00 4.475145e-03 0
1.658804e+00 4.464573e-03 0
1.656305e+00 4.453089e-03 0
1.653807e+00 4.440722e-03 0
1.651309e+00 4.427495e-03 0
1.648812e+00 4.413429e-03 0
1.646317e+00 4.398541e-03 0
1.643824e+00 4.382849e-03 0
1.641333e+00 4.366370e-03 0
1.638844e+00 4.349120e-03 0
1.636358e+00 4.331111e-03 0
1.633876e+00 4.312352e-03 0
1.631397e+00 4.292849e-03 0
1.628922e+00 4.272606e-03 0
1.626451e+00 4.251625e-03 0
1.623985e+00 4.229907e-03 0
1.621523e+00 4.207452e-03 0
1.619066e+00 4.184258e-03 0
1.616615e+00 4.160318e-03 0
1.614170e+00 4.135625e-03 0
1.611731e+00 4.110165e-03 0
1.609299e+00 4.083922e-03 0
1.606873e+00 4.056875e-03 0
1.604455e+00 4.029000e-03 0
1.602044e+00 4.000265e-03 0
1.599641e+00 3.970632e-03 0
1.597247e+00 3.940054e-03 0
1.594861e+00 3.908473e-03 0
1.592485e+00 3.875816e-03 0
1.590119e+00 3.841985e-03 0
1.587763e+00 3.806857e-03 0
1.585418e+00 3.770270e-03 0
1.583085e+00 3.731991e-03 0
1.580765e+00 3.691708e-03 0
1.578457e+00 3.648970e-03 0
1.576164e+00 3.603126e-03 0
1.573887e+00 3.553200e-03 0
1.571628e+00 3.497678e-03 0
1.569388e+00 3.434114e-03 0
1.567171e+00 3.358437e-03 0
1.564979e+00 3.263528e-03 0
1.562814e+00 3.138698e-03 0
1.560624e+00 3.177722e-03 0
1.560624e+00 3.288167e-03 0
2.332738e+00 -2.650455e-04 0
2.332738e+00 -2.579701e-04 0
2.332816e+00 -2.257862e-04 0
2.332885e+00 -1.568529e-04 0
2.332938e+00 -4.958830e-05 0
2.332967e+00 9.845212e-05 0
2.332963e+00 2.911504e-04 0
2.332916e+00 5.338743e-04 0
2.332813e+00 8.333216e-04 0
2.332642e+00 1.197290e-03 0
2.332389e+00 1.634616e-03 0
2.332034e+00 2.155402e-03 0
2.331561e+00 2.771090e-03 0
2.330945e+00 3.494556e-03 0
2.330163e+00 4.340279e-03 0
2.329186e+00 5.324715e-03 0
2.327982e+00 6.466925e-03 0
2.326516e+00 7.789142e-03 0
2.324747e+00 9.317490e-03 0
2.322630e+00 1.108335e-02 0
2.320111e+00 1.312457e-02 0
2.317131e+00 1.548683e-02 0
2.313618e+00 1.822592e-02 0
2.309489e+00 2.140939e-02 0
2.304638e+00 2.511760e-02 0
2.298934e+00 2.944286e-02 0
2.292204e+00 3.448283e-02 0
2.284205e+00 4.031997e-02 0
2.274584e+00 4.696799e-02 0
2.262813e+00 5.424600e-02 0
2.248134e+00 6.151103e-02 0
2.229675e+00 6.719301e-02 0
2.207290e+00 6.841603e-02 0
2.184411e+00 6.255736e-02 0
2.168104e+00 5.141681e-02 0
2.157992e+00 3.938004e-02 0
2.151995e+00 2.881240e-02 0
2.148451e+00 2.036365e-02 0
2.146340e+00 1.390351e-02 0
2.145080e+00 9.066342e-03 0
2.144337e+00 5.476459e-03 0
2.143900e+00 2.823189e-03 0
2.143629e+00 8.771017e-04 0
2.143400e+00 -5.395047e-04 0
2.143156e+00 -1.549748e-03 0
2.142875e+00 -2.226639e-03 0
2.142554e+00 -2.631273e-03 0
2.142193e+00 -2.815389e-03 0
2.141795e+00 -2.822827e-03 0
2.141362e+00 -2.690580e-03 0
2.140896e+00 -2.449658e-03 0
2.140399e+00 -2.125818e-03 0
2.139871e+00 -1.740222e-03 0
2.139313e+00 -1.310219e-03 0
2.138722e+00 -8.509231e-04 0
2.138102e+00 -3.798791e-04 0
2.137456e+00 8.029537e-05 0
2.136784e+00 5.220466e-04 0
2.136071e+00 9.482322e-04 0
2.135301e+00 1.352543e-03 0
2.134467e+00 1.730561e-03 0
2.133567e+00 2.082281e-03 0
2.132601e+00 2.409042e-03 0
2.131568e+00 2.713580e-03 0
2.130469e+00 2.998542e-03 0
2.129309e+00 3.266072e-03 0
2.128089e+00 3.517831e-03 0
2.126812e+00 3.755114e-03 0
2.125481e+00 3.978951e-03 0
2.124098e+00 4.190190e-03 0
2.122667e+00 4.389556e-03 0
2.121189e+00 4.577704e-03 0
2.119667e+00 4.755245e-03 0
2.118103e+00 4.922751e-03 0
2.116500e+00 5.080748e-03 0
2.114858e+00 5.229702e-03 0
2.113181e+00 5.370028e-03 0
2.111470e+00 5.502103e-03 0
2.109726e+00 5.626292e-03 0
2.107951e+00 5.742959e-03 0
2.106148e+00 5.852480e-03 0
2.104316e+00 5.955225e-03 0
2.102459e+00 6.051546e-03 0
2.100577e+00 6.141761e-03 0
2.098672e+00 6.226148e-03 0
2.096744e+00 6.304952e-03 0
2.094795e+00 6.378406e-03 0
2.092826e+00 6.446748e-03 0
2.090838e+00 6.510231e-03 0
2.088833e+00 6.569115e-03 0
2.086810e+00 6.623653e-03 0
2.084772e+00 6.674067e-03 0
2.082719e+00 6.720549e-03 0
2.080652e+00 6.763261e-03 0
2.078571e+00 6.802360e-03 0
2.076477e+00 6.838009e-03 0
2.074372e+00 6.870379e-03 0
2.072255e+00 6.899645e-03 0
2.070128e+00 6.925976e-03 0
2.067990e+00 6.949526e-03 0
2.065844e+00 6.970429e-03 0
2.063689e+00 6.988798e-03 0
2.061525e+00 7.004735e-03 0
2.059354e+00 7.018344e-03 0
2.057176e+00 7.029729e-03 0
2.054991e+00 7.039005e-03 0
2.052799e+00 7.046288e-03 0
2.050602e+00 7.051682e-03 0
2.048399e+00 7.055273e-03 0
2.046191e+00 7.057132e-03 0
2.043979e+00 7.057321e-03 0
2.041762e+00 7.055900e-03 0
2.039541e+00 7.052935e-03 0
2.037317e+00 7.048491e-03 0
2.035089e+00 7.042633e-03 0
2.032859e+00 7.035418e-03 0
2.030625e+00 7.026894e-03 0
2.028389e+00 7.017105e-03 0
2.026152e+00 7.006086e-03 0
2.023912e+00 6.993869e-03 0
2.021670e+00 6.980482e-03 0
2.019428e+00 6.965951e-03 0
2.017184e+00 6.950300e-03 0
2.014940e+00 6.933552e-03 0
2.012695e+00 6.915726e-03 0
2.010449e+00 6.896838e-03 0
2.008204e+00 6.876897e-03 0
2.005959e+00 6.855910e-03 0
2.003714e+00 6.833879e-03 0
2.001470e+00 6.810806e-03 0
1.999227e+00 6.786691e-03 0
1.996985e+00 6.761530e-03 0
1.994745e+00 6.735316e-03 0
1.992507e+00 6.708037e-03 0
1.990270e+00 6.679679e-03 0
1.988036e+00 6.650221e-03 0
1.985804e+00 6.619638e-03 0
1.983575e+00 6.587900e-03 0
1.981350e+00 6.554969e-03 0
1.979127e+00 6.520802e-03 0
1.976909e+00 6.485342e-03 0
1.974695e+00 6.448526e-03 0
1.972485e+00 6.410274e-03 0
1.970280e+00 6.370487e-03 0
1.968080e+00 6.329033e-03 0
1.965886e+00 6.285752e-03 0
1.963698e+00 6.240422e-03 0
1.961517e+00 6.192748e-03 0
1.959342e+00 6.142323e-03 0
1.957175e+00 6.088579e-03 0
1.955017e+00 6.030708e-03 0
1.952867e+00 5.967551e-03 0
1.950726e+00 5.897407e-03 0
1.948596e+00 5.817820e-03 0
1.946476e+00 5.725328e-03 0
1.944366e+00 5.615662e-03 0
1.942260e+00 5.483648e-03 0
1.940150e+00 5.370059e-03 0
1.940150e+00 5.328794e-03 0
2.486737e+00 -3.591364e-04 0
2.486737e+00 -3.493329e-04 0
2.486827e+00 -3.101356e-04 0
2.486910e+00 -2.304521e-04 0
2.486984e+00 -1.071075e-04 0
2.487043e+00 6.374454e-05 0
2.487083e+00 2.871029e-04 0
2.487098e+00 5.696605e-04 0
2.487079e+00 9.193755e-04 0
2.487018e+00 1.345505e-03 0
2.486905e+00 1.858739e-03 0
2.486727e+00 2.471203e-03 0
2.486471e+00 3.196483e-03 0
2.486121e+00 4.049713e-03 0
2.485661e+00 5.047834e-03 0
2.485070e+00 6.210115e-03 0
2.484328e+00 7.558594e-03 0
2.483411e+00 9.118671e-03 0
2.482294e+00 1.092038e-02 0
2.480948e+00 1.299956e-02 0
2.479343e+00 1.539932e-02 0
2.477442e+00 1.817262e-02 0
2.475208e+00 2.138500e-02 0
2.472593e+00 2.511825e-02 0
2.469539e+00 2.947515e-02 0
2.465965e+00 3.458603e-02 0
2.461753e+00 4.061617e-02 0
2.456704e+00 4.777113e-02 0
2.450458e+00 5.628688e-02 0
2.442310e+00 6.635099e-02 0
2.430848e+00 7.777296e-02 0
2.413358e+00 8.889286e-02 0
2.385719e+00 9.379396e-02 0
2.352647e+00 8.393461e-02 0
2.337356e+00 6.407988e-02 0
2.332168e+00 4.574570e-02 0
2.331184e+00 3.172782e-02 0
2.331672e+00 2.159300e-02 0
2.332544e+00 1.435135e-02 0
2.333412e+00 9.166129e-03 0
2.334151e+00 5.439878e-03 0
2.334724e+00 2.762794e-03 0
2.335121e+00 8.529897e-04 0
2.335361e+00 -4.906056e-04 0
2.335451e+00 -1.409025e-03 0
2.335406e+00 -1.996486e-03 0
2.335247e+00 -2.321812e-03 0
2.334995e+00 -2.438418e-03 0
2.334664e+00 -2.389281e-03 0
2.334271e+00 -2.209651e-03 0
2.333825e+00 -1.928670e-03 0
2.333337e+00 -1.570382e-03 0
2.332813e+00 -1.154203e-03 0
2.332258e+00 -6.947106e-04 0
2.331675e+00 -2.102326e-04 0
2.331067e+00 2.810989e-04 0
2.330431e+00 7.730966e-04 0
2.329758e+00 1.260255e-03 0
2.329046e+00 1.734237e-03 0
2.328293e+00 2.189186e-03 0
2.327498e+00 2.621401e-03 0
2.326657e+00 3.029591e-03 0
2.325768e+00 3.413986e-03 0
2.324833e+00 3.775847e-03 0
2.323850e+00 4.116784e-03 0
2.322822e+00 4.438370e-03 0
2.321750e+00 4.742008e-03 0
2.320635e+00 5.028901e-03 0
2.319480e+00 5.300079e-03 0
2.318286e+00 5.556437e-03 0
2.317056e+00 5.798780e-03 0
2.315789e+00 6.027857e-03 0