<?xml version="1.0"?>
<VTKFile type="StructuredGrid">
<StructuredGrid WholeExtent="0 158 0 30 0 0 ">
<Piece Extent="0 158 0 30 0 0 ">
<Points>
<DataArray type="Float64" format="ascii" NumberOfComponents="3">
0.000000e+00 0.000000e+00 0.000000e+00
3.164557e-02 0.000000e+00 0.000000e+00
6.329114e-02 0.000000e+00 0.000000e+00
9.493671e-02 0.000000e+00 0.000000e+00
1.265823e-01 0.000000e+00 0.000000e+00
1.582278e-01 0.000000e+00 0.000000e+00
1.898734e-01 0.000000e+00 0.000000e+00
2.215190e-01 0.000000e+00 0.000000e+00
2.531646e-01 0.000000e+00 0.000000e+00
2.848101e-01 0.000000e+00 0.000000e+00
3.164557e-01 0.000000e+00 0.000000e+00
3.481013e-01 0.000000e+00 0.000000e+00
3.797468e-01 0.000000e+00 0.000000e+00
4.113924e-01 0.000000e+00 0.000000e+00
4.430380e-01 0.000000e+00 0.000000e+00
4.746835e-01 0.000000e+00 0.000000e+00
5.063291e-01 0.000000e+00 0.000000e+00
5.379747e-01 0.000000e+00 0.000000e+00
5.696203e-01 0.000000e+00 0.000000e+00
6.012658e-01 0.000000e+00 0.000000e+00
6.329114e-01 0.000000e+00 0.000000e+00
6.645570e-01 0.000000e+00 0.000000e+00
6.962025e-01 0.000000e+00 0.000000e+00
7.278481e-01 0.000000e+00 0.000000e+00
7.594937e-01 0.000000e+00 0.000000e+00
7.911392e-01 0.000000e+00 0.000000e+00
8.227848e-01 0.000000e+00 0.000000e+00
8.544304e-01 0.000000e+00 0.000000e+00
8.860759e-01 0.000000e+00 0.000000e+00
9.177215e-01 0.000000e+00 0.000000e+00
9.493671e-01 0.000000e+00 0.000000e+00
9.810127e-01 0.000000e+00 0.000000e+00
1.012658e+00 0.000000e+00 0.000000e+00
1.044304e+00 0.000000e+00 0.000000e+00
1.075949e+00 0.000000e+00 0.000000e+00
1.107595e+00 0.000000e+00 0.000000e+00
1.139241e+00 0.000000e+00 0.000000e+00
1.170886e+00 0.000000e+00 0.000000e+00
1.202532e+00 0.000000e+00 0.000000e+00
1.234177e+00 0.000000e+00 0.000000e+00
1.265823e+00 0.000000e+00 0.000000e+00
1.297468e+00 0.000000e+00 0.000000e+00
1.329114e+00 0.000000e+00 0.000000e+00
1.360759e+00 0.000000e+00 0.000000e+00
1.392405e+00 0.000000e+00 0.000000e+00
1.424051e+00 0.000000e+00 0.000000e+00
1.455696e+00 0.000000e+00 0.000000e+00
1.487342e+00 0.000000e+00 0.000000e+00
1.518987e+00 0.000000e+00 0.000000e+00
1.550633e+00 0.000000e+00 0.000000e+00
1.582278e+00 0.000000e+00 0.000000e+00
1.613924e+00 0.000000e+00 0.000000e+00
1.645570e+00 0.000000e+00 0.000000e+00
1.677215e+00 0.000000e+00 0.000000e+00
1.708861e+00 0.000000e+00 0.000000e+00
1.740506e+00 0.000000e+00 0.000000e+00
1.772152e+00 0.000000e+00 0.000000e+00
1.803797e+00 0.000000e+00 0.000000e+00
1.835443e+00 0.000000e+00 0.000000e+00
1.867089e+00 0.000000e+00 0.000000e+00
1.898734e+00 0.000000e+00 0.000000e+00
1.930380e+00 0.000000e+00 0.000000e+00
1.962025e+00 0.000000e+00 0.000000e+00
1.993671e+00 0.000000e+00 0.000000e+00
2.025316e+00 0.000000e+00 0.000000e+00
2.056962e+00 0.000000e+00 0.000000e+00
2.088608e+00 0.000000e+00 0.000000e+00
2.120253e+00 0.000000e+00 0.000000e+00
2.151899e+00 0.000000e+00 0.000000e+00
2.183544e+00 0.000000e+00 0.000000e+00
2.215190e+00 0.000000e+00 0.000000e+00
2.246835e+00 0.000000e+00 0.000000e+00
2.278481e+00 0.000000e+00 0.000000e+00
2.310127e+00 0.000000e+00 0.000000e+00
2.341772e+00 0.000000e+00 0.000000e+00
2.373418e+00 0.000000e+00 0.000000e+00
2.405063e+00 0.000000e+00 0.000000e+00
2.436709e+00 0.000000e+00 0.000000e+00
2.468354e+00 0.000000e+00 0.000000e+00
2.500000e+00 0.000000e+00 0.000000e+00
2.531646e+00 0.000000e+00 0.000000e+00
2.563291e+00 0.000000e+00 0.000000e+00
2.594937e+00 0.000000e+00 0.000000e+00
2.626582e+00 0.000000e+00 0.000000e+00
2.658228e+00 0.000000e+00 0.000000e+00
2.689873e+00 0.000000e+00 0.000000e+00
2.721519e+00 0.000000e+00 0.000000e+00
2.753165e+00 0.000000e+00 0.000000e+00
2.784810e+00 0.000000e+00 0.000000e+00
2.816456e+00 0.000000e+00 0.000000e+00
2.848101e+00 0.000000e+00 0.000000e+00
2.879747e+00 0.000000e+00 0.000000e+00
2.911392e+00 0.000000e+00 0.000000e+00
2.943038e+00 0.000000e+00 0.000000e+00
2.974684e+00 0.000000e+00 0.000000e+00
3.006329e+00 0.000000e+00 0.000000e+00
3.037975e+00 0.000000e+00 0.000000e+00
3.069620e+00 0.000000e+00 0.000000e+00
3.101266e+00 0.000000e+00 0.000000e+00
3.132911e+00 0.000000e+00 0.000000e+00
3.164557e+00 0.000000e+00 0.000000e+00
3.196203e+00 0.000000e+00 0.000000e+00
3.227848e+00 0.000000e+00 0.000000e+00
3.259494e+00 0.000000e+00 0.000000e+00
3.291139e+00 0.000000e+00 0.000000e+00
3.322785e+00 0.000000e+00 0.000000e+00
3.354430e+00 0.000000e+00 0.000000e+00
3.386076e+00 0.000000e+00 0.000000e+00
3.417722e+00 0.000000e+00 0.000000e+00
3.449367e+00 0.000000e+00 0.000000e+00
3.481013e+00 0.000000e+00 0.000000e+00
3.512658e+00 0.000000e+00 0.000000e+00
3.544304e+00 0.000000e+00 0.000000e+00
3.575949e+00 0.000000e+00 0.000000e+00
3.607595e+00 0.000000e+00 0.000000e+00
3.639241e+00 0.000000e+00 0.000000e+00
3.670886e+00 0.000000e+00 0.000000e+00
3.702532e+00 0.000000e+00 0.000000e+00
3.734177e+00 0.000000e+00 0.000000e+00
3.765823e+00 0.000000e+00 0.000000e+00
3.797468e+00 0.000000e+00 0.000000e+00
3.829114e+00 0.000000e+00 0.000000e+00
3.860759e+00 0.000000e+00 0.000000e+00
3.892405e+00 0.000000e+00 0.000000e+00
3.924051e+00 0.000000e+00 0.000000e+00
3.955696e+00 0.000000e+00 0.000000e+00
3.987342e+00 0.000000e+00 0.000000e+00
4.018987e+00 0.000000e+00 0.000000e+00
4.050633e+00 0.000000e+00 0.000000e+00
4.082278e+00 0.000000e+00 0.000000e+00
4.113924e+00 0.000000e+00 0.000000e+00
4.145570e+00 0.000000e+00 0.000000e+00
4.177215e+00 0.000000e+00 0.000000e+00
4.208861e+00 0.000000e+00 0.000000e+00
4.240506e+00 0.000000e+00 0.000000e+00
4.272152e+00 0.000000e+00 0.000000e+00
4.303797e+00 0.000000e+00 0.000000e+00
4.335443e+00 0.000000e+00 0.000000e+00
4.367089e+00 0.000000e+00 0.000000e+00
4.398734e+00 0.000000e+00 0.000000e+00
4.430380e+00 0.000000e+00 0.000000e+00
4.462025e+00 0.000000e+00 0.000000e+00
4.493671e+00 0.000000e+00 0.000000e+00
4.525316e+00 0.000000e+00 0.000000e+00
4.556962e+00 0.000000e+00 0.000000e+00
4.588608e+00 0.000000e+00 0.000000e+00
4.620253e+00 0.000000e+00 0.000000e+00
4.651899e+00 0.000000e+00 0.000000e+00
4.683544e+00 0.000000e+00 0.000000e+00
4.715190e+00 0.000000e+00 0.000000e+00
4.746835e+00 0.000000e+00 0.000000e+00
4.778481e+00 0.000000e+00 0.000000e+00
4.810127e+00 0.000000e+00 0.000000e+00
4.841772e+00 0.000000e+00 0.000000e+00
4.873418e+00 0.000000e+00 0.000000e+00
4.905063e+00 0.000000e+00 0.000000e+00
4.936709e+00 0.000000e+00 0.000000e+00
4.968354e+00 0.000000e+00 0.000000e+00
5.000000e+00 0.000000e+00 0.000000e+00
0.000000e+00 3.333333e-02 0.000000e+00
3.164557e-02 3.333333e-02 0.000000e+00
6.329114e-02 3.333333e-02 0.000000e+00
9.493671e-02 3.333333e-02 0.000000e+00
1.265823e-01 3.333333e-02 0.000000e+00
1.582278e-01 3.333333e-02 0.000000e+00
1.898734e-01 3.333333e-02 0.000000e+00
2.215190e-01 3.333333e-02 0.000000e+00
2.531646e-01 3.333333e-02 0.000000e+00
2.848101e-01 3.333333e-02 0.000000e+00
3.164557e-01 3.333333e-02 0.000000e+00
3.481013e-01 3.333333e-02 0.000000e+00
3.797468e-01 3.333333e-02 0.000000e+00
4.113924e-01 3.333333e-02 0.000000e+00
4.430380e-01 3.333333e-02 0.000000e+00
4.746835e-01 3.333333e-02 0.000000e+00
5.063291e-01 3.333333e-02 0.000000e+00
5.379747e-01 3.333333e-02 0.000000e+00
5.696203e-01 3.333333e-02 0.000000e+00
6.012658e-01 3.333333e-02 0.000000e+00
6.329114e-01 3.333333e-02 0.000000e+00
6.645570e-01 3.333333e-02 0.000000e+00
6.962025e-01 3.333333e-02 0.000000e+00
7.278481e-01 3.333333e-02 0.000000e+00
7.594937e-01 3.333333e-02 0.000000e+00
7.911392e-01 3.333333e-02 0.000000e+00
8.227848e-01 3.333333e-02 0.000000e+00
8.544304e-01 3.333333e-02 0.000000e+00
8.860759e-01 3.333333e-02 0.000000e+00
9.177215e-01 3.333333e-02 0.000000e+00
9.493671e-01 3.333333e-02 0.000000e+00
9.810127e-01 3.333333e-02 0.000000e+00
1.012658e+00 3.333333e-02 0.000000e+00
1.044304e+00 3.333333e-02 0.000000e+00
1.075949e+00 3.333333e-02 0.000000e+00
1.107595e+00 3.333333e-02 0.000000e+00
1.139241e+00 3.333333e-02 0.000000e+00
1.170886e+00 3.333333e-02 0.000000e+00
1.202532e+00 3.333333e-02 0.000000e+00
1.234177e+00 3.333333e-02 0.000000e+00
1.265823e+00 3.333333e-02 0.000000e+00
1.297468e+00 3.333333e-02 0.000000e+00
1.329114e+00 3.333333e-02 0.000000e+00
1.360759e+00 3.333333e-02 0.000000e+00
1.392405e+00 3.333333e-02 0.000000e+00
1.424051e+00 3.333333e-02 0.000000e+00
1.455696e+00 3.333333e-02 0.000000e+00
1.487342e+00 3.333333e-02 0.000000e+00
1.518987e+00 3.333333e-02 0.000000e+00
1.550633e+00 3.333333e-02 0.000000e+00
1.582278e+00 3.333333e-02 0.000000e+00
1.613924e+00 3.333333e-02 0.000000e+00
1.645570e+00 3.333333e-02 0.000000e+00
1.677215e+00 3.333333e-02 0.000000e+00
1.708861e+00 3.333333e-02 0.000000e+00
1.740506e+00 3.333333e-02 0.000000e+00
1.772152e+00 3.333333e-02 0.000000e+00
1.803797e+00 3.333333e-02 0.000000e+00
1.835443e+00 3.333333e-02 0.000000e+00
1.867089e+00 3.333333e-02 0.000000e+00
1.898734e+00 3.333333e-02 0.000000e+00
1.930380e+00 3.333333e-02 0.000000e+00
1.962025e+00 3.333333e-02 0.000000e+00
1.993671e+00 3.333333e-02 0.000000e+00
2.025316e+00 3.333333e-02 0.000000e+00
2.056962e+00 3.333333e-02 0.000000e+00
2.088608e+00 3.333333e-02 0.000000e+00
2.120253e+00 3.333333e-02 0.000000e+00
2.151899e+00 3.333333e-02 0.000000e+00
2.183544e+00 3.333333e-02 0.000000e+00
2.215190e+00 3.333333e-02 0.000000e+00
2.246835e+00 3.333333e-02 0.000000e+00
2.278481e+00 3.333333e-02 0.000000e+00
2.310127e+00 3.333333e-02 0.000000e+00
2.341772e+00 3.333333e-02 0.000000e+00
2.373418e+00 3.333333e-02 0.000000e+00
2.405063e+00 3.333333e-02 0.000000e+00
2.436709e+00 3.333333e-02 0.000000e+00
2.468354e+00 3.333333e-02 0.000000e+00
2.500000e+00 3.333333e-02 0.000000e+00
2.531646e+00 3.333333e-02 0.000000e+00
2.563291e+00 3.333333e-02 0.000000e+00
2.594937e+00 3.333333e-02 0.000000e+00
2.626582e+00 3.333333e-02 0.000000e+00
2.658228e+00 3.333333e-02 0.000000e+00
2.689873e+00 3.333333e-02 0.000000e+00
2.721519e+00 3.333333e-02 0.000000e+00
2.753165e+00 3.333333e-02 0.000000e+00
2.784810e+00 3.333333e-02 0.000000e+00
2.816456e+00 3.333333e-02 0.000000e+00
2.848101e+00 3.333333e-02 0.000000e+00
2.879747e+00 3.333333e-02 0.000000e+00
[...]
<PointData>
<DataArray Name="Velocity" type="Float64" format="ascii" NumberOfComponents="3">
0.000000e+00 0.000000e+00 0
0.000000e+00 0.000000e+00 0
0.000000e+00 0.000000e+00 0
0.000000e+00 0.000000e+00 0
0.000000e+00 0.000000e+00 0
0.000000e+00 0.000000e+00 0
0.000000e+00 0.000000e+00 0
0.000000e+00 0.000000e+00 0
0.000000e+00 0.000000e+00 0
0.000000e+00 0.000000e+00 0
0.000000e+00 0.000000e+00 0
0.000000e+00 0.000000e+00 0
0.000000e+00 0.000000e+00 0
0.000000e+00 0.000000e+00 0
0.000000e+00 0.000000e+00 0
0.000000e+00 0.000000e+00 0
0.000000e+00 0.000000e+00 0
0.000000e+00 0.000000e+00 0
0.000000e+00 0.000000e+00 0
3.874790e-17 0.000000e+00 0
0.000000e+00 0.000000e+00 0
0.000000e+00 0.000000e+00 0
0.000000e+00 0.000000e+00 0
1.027906e-17 0.000000e+00 0
0.000000e+00 0.000000e+00 0
0.000000e+00 0.000000e+00 0
0.000000e+00 0.000000e+00 0
-4.104572e-17 0.000000e+00 0
0.000000e+00 0.000000e+00 0
0.000000e+00 0.000000e+00 0
0.000000e+00 0.000000e+00 0
-1.241742e-17 0.000000e+00 0
0.000000e+00 0.000000e+00 0
0.000000e+00 0.000000e+00 0
0.000000e+00 0.000000e+00 0
0.000000e+00 0.000000e+00 0
0.000000e+00 0.000000e+00 0
0.000000e+00 0.000000e+00 0
9.122482e-18 0.000000e+00 0
0.000000e+00 0.000000e+00 0
0.000000e+00 0.000000e+00 0
0.000000e+00 0.000000e+00 0
0.000000e+00 0.000000e+00 0
0.000000e+00 0.000000e+00 0
0.000000e+00 0.000000e+00 0
0.000000e+00 0.000000e+00 0
1.535495e-18 0.000000e+00 0
0.000000e+00 0.000000e+00 0
0.000000e+00 0.000000e+00 0
0.000000e+00 0.000000e+00 0
0.000000e+00 0.000000e+00 0
0.000000e+00 0.000000e+00 0
0.000000e+00 0.000000e+00 0
0.000000e+00 0.000000e+00 0
2.383149e-17 0.000000e+00 0
0.000000e+00 0.000000e+00 0
0.000000e+00 0.000000e+00 0
0.000000e+00 0.000000e+00 0
0.000000e+00 0.000000e+00 0
0.000000e+00 0.000000e+00 0
0.000000e+00 0.000000e+00 0
0.000000e+00 0.000000e+00 0
2.330651e-17 0.000000e+00 0
0.000000e+00 0.000000e+00 0
0.000000e+00 0.000000e+00 0
0.000000e+00 0.000000e+00 0
0.000000e+00 0.000000e+00 0
0.000000e+00 0.000000e+00 0
0.000000e+00 0.000000e+00 0
0.000000e+00 0.000000e+00 0
0.000000e+00 0.000000e+00 0
0.000000e+00 0.000000e+00 0
0.000000e+00 0.000000e+00 0
0.000000e+00 0.000000e+00 0
0.000000e+00 0.000000e+00 0
0.000000e+00 0.000000e+00 0
0.000000e+00 0.000000e+00 0
0.000000e+00 0.000000e+00 0
0.000000e+00 0.000000e+00 0
0.000000e+00 0.000000e+00 0
0.000000e+00 0.000000e+00 0
0.000000e+00 0.000000e+00 0
0.000000e+00 0.000000e+00 0
0.000000e+00 0.000000e+00 0
0.000000e+00 0.000000e+00 0
0.000000e+00 0.000000e+00 0
0.000000e+00 0.000000e+00 0
0.000000e+00 0.000000e+00 0
0.000000e+00 0.000000e+00 0
0.000000e+00 0.000000e+00 0
0.000000e+00 0.000000e+00 0
0.000000e+00 0.000000e+00 0
0.000000e+00 0.000000e+00 0
0.000000e+00 0.000000e+00 0
0.000000e+00 0.000000e+00 0
0.000000e+00 0.000000e+00 0
0.000000e+00 0.000000e+00 0
0.000000e+00 0.000000e+00 0
0.000000e+00 0.000000e+00 0
0.000000e+00 0.000000e+00 0
0.000000e+00 0.000000e+00 0
0.000000e+00 0.000000e+00 0
0.000000e+00 0.000000e+00 0
0.000000e+00 0.000000e+00 0
0.000000e+00 0.000000e+00 0
0.000000e+00 0.000000e+00 0
0.000000e+00 0.000000e+00 0
0.000000e+00 0.000000e+00 0
0.000000e+00 0.000000e+00 0
0.000000e+00 0.000000e+00 0
0.000000e+00 0.000000e+00 0
0.000000e+00 0.000000e+00 0
0.000000e+00 0.000000e+00 0
0.000000e+00 0.000000e+00 0
0.000000e+00 0.000000e+00 0
0.000000e+00 0.000000e+00 0
0.000000e+00 0.000000e+00 0
0.000000e+00 0.000000e+00 0
0.000000e+00 0.000000e+00 0
0.000000e+00 0.000000e+00 0
0.000000e+00 0.000000e+00 0
0.000000e+00 0.000000e+00 0
0.000000e+00 0.000000e+00 0
0.000000e+00 0.000000e+00 0
0.000000e+00 0.000000e+00 0
0.000000e+00 0.000000e+00 0
0.000000e+00 0.000000e+00 0
0.000000e+00 0.000000e+00 0
0.000000e+00 0.000000e+00 0
0.000000e+00 0.000000e+00 0
0.000000e+00 0.000000e+00 0
0.000000e+00 0.000000e+00 0
0.000000e+00 0.000000e+00 0
0.000000e+00 0.000000e+00 0
0.000000e+00 0.000000e+00 0
0.000000e+00 0.000000e+00 0
0.000000e+00 0.000000e+00 0
0.000000e+00 0.000000e+00 0
0.000000e+00 0.000000e+00 0
0.000000e+00 0.000000e+00 0
0.000000e+00 0.000000e+00 0
0.000000e+00 0.000000e+00 0
0.000000e+00 0.000000e+00 0
0.000000e+00 0.000000e+00 0
0.000000e+00 0.000000e+00 0
0.000000e+00 0.000000e+00 0
0.000000e+00 0.000000e+00 0
0.000000e+00 0.000000e+00 0
0.000000e+00 0.000000e+00 0
0.000000e+00 0.000000e+00 0
0.000000e+00 0.000000e+00 0
0.000000e+00 0.000000e+00 0
0.000000e+00 0.000000e+00 0
0.000000e+00 0.000000e+00 0
0.000000e+00 0.000000e+00 0
0.000000e+00 0.000000e+00 0
0.000000e+00 0.000000e+00 0
0.000000e+00 0.000000e+00 0
0.000000e+00 0.000000e+00 0
1.994591e+00 -2.184240e-05 0
1.994591e+00 -2.213663e-05 0
1.994608e+00 -1.529879e-05 0
1.994613e+00 3.017016e-06 0
1.994596e+00 3.021090e-05 0
1.994548e+00 6.757677e-05 0
1.994460e+00 1.161620e-04 0
1.994319e+00 1.771172e-04 0
1.994113e+00 2.517923e-04 0
1.993829e+00 3.417522e-04 0
1.993452e+00 4.488105e-04 0
1.992963e+00 5.750327e-04 0
1.992344e+00 7.227103e-04 0
1.991574e+00 8.944041e-04 0
1.990628e+00 1.092979e-03 0
1.989478e+00 1.321657e-03 0
1.988096e+00 1.584157e-03 0
1.986445e+00 1.884820e-03 0
1.984489e+00 2.228743e-03 0
1.982182e+00 2.621981e-03 0
1.979476e+00 3.071730e-03 0
1.976311e+00 3.586565e-03 0
1.972623e+00 4.176735e-03 0
1.968332e+00 4.854227e-03 0
1.963350e+00 5.632568e-03 0
1.957572e+00 6.525691e-03 0
1.950881e+00 7.544739e-03 0
1.943147e+00 8.691202e-03 0
1.934245e+00 9.943138e-03 0
1.924079e+00 1.123088e-02 0
1.912647e+00 1.240275e-02 0
1.900144e+00 1.319811e-02 0
1.887108e+00 1.328426e-02 0
1.874479e+00 1.244377e-02 0
1.863301e+00 1.081943e-02 0
1.854109e+00 8.826232e-03 0
1.846943e+00 6.845566e-03 0
1.841566e+00 5.098629e-03 0
1.837650e+00 3.664482e-03 0
1.834876e+00 2.537758e-03 0
1.832971e+00 1.675670e-03 0
1.831717e+00 1.024370e-03 0
1.830951e+00 5.282765e-04 0
1.830550e+00 9.778346e-05 0
1.830422e+00 -2.881184e-04 0
1.830508e+00 -5.840692e-04 0
1.830750e+00 -7.909681e-04 0
1.831094e+00 -9.204953e-04 0
1.831496e+00 -9.846854e-04 0
1.831918e+00 -9.950244e-04 0
1.832330e+00 -9.619345e-04 0
1.832708e+00 -8.945617e-04 0
1.833034e+00 -8.007201e-04 0
1.833292e+00 -6.868645e-04 0
1.833474e+00 -5.577232e-04 0
1.833571e+00 -4.166140e-04 0
1.833585e+00 -2.683605e-04 0
1.833525e+00 -1.275204e-04 0
1.833397e+00 -1.709586e-05 0
1.833206e+00 6.189497e-05 0
1.832955e+00 1.262587e-04 0
1.832651e+00 1.838554e-04 0
1.832296e+00 2.371834e-04 0
1.831892e+00 2.872052e-04 0
1.831444e+00 3.343688e-04 0
1.830953e+00 3.789137e-04 0
1.830422e+00 4.209839e-04 0
1.829852e+00 4.606821e-04 0
1.829247e+00 4.981001e-04 0
1.828607e+00 5.333316e-04 0
1.827935e+00 5.664722e-04 0
1.827233e+00 5.976138e-04 0
1.826502e+00 6.268419e-04 0
1.825745e+00 6.542360e-04 0
1.824963e+00 6.798722e-04 0
1.824157e+00 7.038241e-04 0
1.823330e+00 7.261616e-04 0
1.822481e+00 7.469525e-04 0
1.821614e+00 7.662660e-04 0
1.820729e+00 7.841759e-04 0
1.819827e+00 8.007596e-04 0
1.818910e+00 8.160909e-04 0
1.817978e+00 8.302324e-04 0
1.817034e+00 8.432345e-04 0
1.816077e+00 8.551411e-04 0
1.815109e+00 8.659995e-04 0
1.814131e+00 8.758650e-04 0
1.813144e+00 8.847980e-04 0
1.812147e+00 8.928562e-04 0
1.811144e+00 9.000888e-04 0
1.810133e+00 9.065356e-04 0
1.809116e+00 9.122315e-04 0
1.808093e+00 9.172105e-04 0
1.807066e+00 9.215079e-04 0
1.806034e+00 9.251593e-04 0
1.804998e+00 9.282002e-04 0
1.803959e+00 9.306657e-04 0
1.802918e+00 9.325899e-04 0
1.801874e+00 9.340045e-04 0
1.800828e+00 9.349366e-04 0
1.799782e+00 9.354081e-04 0
1.798734e+00 9.354380e-04 0
1.797686e+00 9.350458e-04 0
1.796637e+00 9.342530e-04 0
1.795589e+00 9.330835e-04 0
1.794542e+00 9.315598e-04 0
1.793495e+00 9.297016e-04 0
1.792450e+00 9.275251e-04 0
1.791406e+00 9.250447e-04 0
1.790364e+00 9.222739e-04 0
1.789324e+00 9.192263e-04 0
1.788286e+00 9.159150e-04 0
1.787251e+00 9.123516e-04 0
1.786219e+00 9.085469e-04 0
1.785190e+00 9.045113e-04 0
1.784164e+00 9.002554e-04 0
1.783141e+00 8.957897e-04 0
1.782122e+00 8.911233e-04 0
1.781107e+00 8.862637e-04 0
1.780096e+00 8.812161e-04 0
1.779089e+00 8.759850e-04 0
1.778087e+00 8.705745e-04 0
1.777089e+00 8.649892e-04 0
1.776095e+00 8.592345e-04 0
1.775107e+00 8.533155e-04 0
1.774124e+00 8.472367e-04 0
1.773145e+00 8.410015e-04 0
1.772173e+00 8.346120e-04 0
1.771205e+00 8.280697e-04 0
1.770243e+00 8.213759e-04 0
1.769287e+00 8.145319e-04 0
1.768337e+00 8.075393e-04 0
1.767393e+00 8.003997e-04 0
1.766456e+00 7.931143e-04 0
1.765524e+00 7.856839e-04 0
1.764599e+00 7.781086e-04 0
1.763681e+00 7.703879e-04 0
1.762770e+00 7.625208e-04 0
1.761865e+00 7.545056e-04 0
1.760968e+00 7.463399e-04 0
1.760077e+00 7.380204e-04 0
1.759195e+00 7.295424e-04 0
1.758320e+00 7.208988e-04 0
1.757452e+00 7.120792e-04 0
1.756593e+00 7.030680e-04 0
1.755741e+00 6.938426e-04 0
1.754898e+00 6.843688e-04 0
1.754063e+00 6.745963e-04 0
1.753238e+00 6.644495e-04 0
1.752422e+00 6.538122e-04 0
1.751615e+00 6.425055e-04 0
1.750819e+00 6.302422e-04 0
1.750035e+00 6.165399e-04 0
1.749264e+00 6.005281e-04 0
1.748509e+00 5.803156e-04 0
1.747774e+00 5.523545e-04 0
1.747065e+00 4.839397e-04 0
1.746396e+00 5.464561e-04 0
1.746396e+00 6.609138e-04 0
3.218881e+00 -4.371094e-05 0
3.218881e+00 -4.008483e-05 0
3.218897e+00 -2.315116e-05 0
3.218901e+00 1.282078e-05 0
3.218886e+00 6.803118e-05 0
3.218843e+00 1.438246e-04 0
3.218763e+00 2.420644e-04 0
3.218636e+00 3.650555e-04 0
3.218450e+00 5.155327e-04 0
3.218194e+00 6.966856e-04 0
3.217854e+00 9.121748e-04 0
3.217414e+00 1.166111e-03 0
3.216856e+00 1.463097e-03 0
3.216162e+00 1.808282e-03 0
3.215309e+00 2.207421e-03 0
3.214273e+00 2.667050e-03 0
3.213026e+00 3.194676e-03 0
3.211539e+00 3.798994e-03 0
3.209775e+00 4.490220e-03 0
3.207696e+00 5.280461e-03 0
3.205258e+00 6.184150e-03 0
3.202408e+00 7.218655e-03 0
3.199087e+00 8.404765e-03 0
3.195226e+00 9.767063e-03 0
3.190743e+00 1.133365e-02 0
3.185541e+00 1.313416e-02 0
3.179505e+00 1.519431e-02 0
3.172502e+00 1.752301e-02 0
3.164377e+00 2.008513e-02 0
3.154970e+00 2.275023e-02 0
3.144162e+00 2.521149e-02 0
3.131993e+00 2.690116e-02 0
3.118933e+00 2.703407e-02 0
3.106257e+00 2.507653e-02 0
3.095610e+00 2.145591e-02 0
3.087422e+00 1.723032e-02 0
3.081403e+00 1.321292e-02 0
3.077076e+00 9.789043e-03 0
3.074006e+00 7.046859e-03 0
3.071853e+00 4.928765e-03 0
3.070367e+00 3.326636e-03 0
3.069363e+00 2.127477e-03 0
3.068709e+00 1.229574e-03 0
3.068300e+00 5.577103e-04 0
3.068014e+00 4.449391e-05 0
3.067798e+00 -3.459174e-04 0
3.067627e+00 -6.173742e-04 0
3.067479e+00 -7.857845e-04 0
3.067342e+00 -8.677071e-04 0
3.067202e+00 -8.786334e-04 0
3.067051e+00 -8.323976e-04 0
3.066882e+00 -7.410570e-04 0
3.066689e+00 -6.150068e-04 0
3.066469e+00 -4.632778e-04 0
3.066220e+00 -2.930380e-04 0
3.065947e+00 -1.169756e-04 0
3.065655e+00 4.803391e-05 0
3.065344e+00 1.977666e-04 0
3.065009e+00 3.366326e-04 0
3.064633e+00 4.654848e-04 0
3.064211e+00 5.844112e-04 0
3.063743e+00 6.950460e-04 0
3.063231e+00 7.988612e-04 0
3.062677e+00 8.967745e-04 0
3.062082e+00 9.893403e-04 0
3.061450e+00 1.076909e-03 0
3.060782e+00 1.159725e-03 0
3.060079e+00 1.237984e-03 0
3.059344e+00 1.311868e-03 0
3.058578e+00 1.381552e-03 0
3.057783e+00 1.447208e-03 0
3.056961e+00 1.509001e-03 0
3.056113e+00 1.567090e-03 0
3.055241e+00 1.621626e-03 0
3.054347e+00 1.672758e-03 0
3.053430e+00 1.720631e-03 0
3.052494e+00 1.765384e-03 0
3.051539e+00 1.807154e-03 0
3.050566e+00 1.846078e-03 0
3.049576e+00 1.882298e-03 0
3.048572e+00 1.915952e-03 0
3.047553e+00 1.947169e-03 0
3.046520e+00 1.976064e-03 0
3.045475e+00 2.002741e-03 0
3.044419e+00 2.027298e-03 0
3.043351e+00 2.049839e-03 0
3.042274e+00 2.070472e-03 0
3.041188e+00 2.089302e-03 0
3.040094e+00 2.106429e-03 0
3.038991e+00 2.121937e-03 0
3.037882e+00 2.135907e-03 0
3.036766e+00 2.148412e-03 0
3.035645e+00 2.159525e-03 0
3.034518e+00 2.169318e-03 0
3.033387e+00 2.177859e-03 0
3.032251e+00 2.185214e-03 0
3.031112e+00 2.191447e-03 0
3.029969e+00 2.196622e-03 0
3.028824e+00 2.200794e-03 0
3.027676e+00 2.204014e-03 0
3.026526e+00 2.206327e-03 0
3.025374e+00 2.207774e-03 0
3.024221e+00 2.208397e-03 0
3.023067e+00 2.208240e-03 0
3.021913e+00 2.207345e-03 0
3.020758e+00 2.205751e-03 0
3.019603e+00 2.203493e-03 0
3.018449e+00 2.200602e-03 0
3.017294e+00 2.197106e-03 0
3.016141e+00 2.193035e-03 0
3.014989e+00 2.188414e-03 0
3.013837e+00 2.183267e-03 0
3.012687e+00 2.177617e-03 0
3.011539e+00 2.171486e-03 0
3.010393e+00 2.164893e-03 0
3.009249e+00 2.157858e-03 0
3.008107e+00 2.150400e-03 0
3.006967e+00 2.142534e-03 0
3.005830e+00 2.134273e-03 0
3.004696e+00 2.125629e-03 0
3.003564e+00 2.116611e-03 0
3.002436e+00 2.107229e-03 0
3.001311e+00 2.097492e-03 0
3.000189e+00 2.087410e-03 0
2.999071e+00 2.076991e-03 0
2.997957e+00 2.066243e-03 0
2.996846e+00 2.055172e-03 0
2.995740e+00 2.043779e-03 0
2.994637e+00 2.032070e-03 0
2.993539e+00 2.020047e-03 0
2.992445e+00 2.007712e-03 0
2.991356e+00 1.995070e-03 0
2.990272e+00 1.982120e-03 0
2.989192e+00 1.968867e-03 0
2.988117e+00 1.955308e-03 0
2.987048e+00 1.941446e-03 0
2.985984e+00 1.927277e-03 0
2.984925e+00 1.912800e-03 0
2.983871e+00 1.898011e-03 0
2.982824e+00 1.882906e-03 0
2.981782e+00 1.867478e-03 0
2.980746e+00 1.851717e-03 0
2.979716e+00 1.835609e-03 0
2.978693e+00 1.819133e-03 0
2.977676e+00 1.802257e-03 0
2.976665e+00 1.784936e-03 0
2.975662e+00 1.767102e-03 0
2.974666e+00 1.748656e-03 0
2.973677e+00 1.729448e-03 0
2.972695e+00 1.709251e-03 0
2.971722e+00 1.687716e-03 0
2.970757e+00 1.664294e-03 0
2.969802e+00 1.638088e-03 0
2.968857e+00 1.607573e-03 0
2.967925e+00 1.570052e-03 0
2.967005e+00 1.520493e-03 0
2.966098e+00 1.450741e-03 0
2.965178e+00 1.433410e-03 0
2.965178e+00 1.457215e-03 0
3.933694e+00 -6.795531e-05 0
3.933694e+00 -6.160736e-05 0
3.933715e+00 -3.641031e-05 0
3.933727e+00 1.421599e-05 0
3.933725e+00 9.152865e-05 0
3.933703e+00 1.974987e-04 0
3.933653e+00 3.347356e-04 0
3.933569e+00 5.064885e-04 0
3.933442e+00 7.166450e-04 0
3.933263e+00 9.697370e-04 0
3.933020e+00 1.270914e-03 0
3.932704e+00 1.625964e-03 0
3.932299e+00 2.041352e-03 0
3.931792e+00 2.524266e-03 0
3.931165e+00 3.082755e-03 0
3.930400e+00 3.725929e-03 0
3.929476e+00 4.464167e-03 0
3.928371e+00 5.309481e-03 0
3.927058e+00 6.275938e-03 0
3.925509e+00 7.380185e-03 0
3.923692e+00 8.642211e-03 0
3.921568e+00 1.008618e-02 0
3.919096e+00 1.174140e-02 0
3.916224e+00 1.364338e-02 0
3.912893e+00 1.583434e-02 0
3.909025e+00 1.836270e-02 0
3.904524e+00 2.127951e-02 0
3.899256e+00 2.462706e-02 0
3.893029e+00 2.840946e-02 0
3.885562e+00 3.252299e-02 0
3.876448e+00 3.660572e-02 0
3.865225e+00 3.977273e-02 0
3.851843e+00 4.039286e-02 0
3.838305e+00 3.701057e-02 0
3.828490e+00 3.065881e-02 0
3.822208e+00 2.379204e-02 0
3.818317e+00 1.774383e-02 0
3.815890e+00 1.288971e-02 0
3.814347e+00 9.165332e-03 0
3.813350e+00 6.371067e-03 0
3.812705e+00 4.298584e-03 0
3.812292e+00 2.770802e-03 0
3.812033e+00 1.648726e-03 0
3.811869e+00 8.293363e-04 0
3.811760e+00 2.398455e-04 0
3.811660e+00 -1.756381e-04 0
3.811552e+00 -4.548584e-04 0
3.811429e+00 -6.203664e-04 0
3.811288e+00 -6.924811e-04 0
3.811126e+00 -6.889237e-04 0
3.810943e+00 -6.249365e-04 0
3.810739e+00 -5.135145e-04 0
3.810515e+00 -3.658002e-04 0
3.810271e+00 -1.923650e-04 0
3.810011e+00 -8.078631e-06 0
3.809737e+00 1.783966e-04 0
3.809443e+00 3.669068e-04 0
3.809121e+00 5.529785e-04 0
3.808767e+00 7.320518e-04 0
3.808378e+00 9.024761e-04 0
3.807955e+00 1.063706e-03 0
3.807497e+00 1.216120e-03 0
3.807005e+00 1.360364e-03 0
3.806480e+00 1.497016e-03 0
3.805924e+00 1.626518e-03 0
3.805337e+00 1.749209e-03 0
3.804722e+00 1.865363e-03 0
3.804080e+00 1.975227e-03 0
3.803412e+00 2.079040e-03 0
3.802719e+00 2.177036e-03 0
3.802004e+00 2.269446e-03 0
3.801267e+00 2.356492e-03 0
3.800509e+00 2.438389e-03 0
3.799732e+00 2.515349e-03 0
3.798937e+00 2.587578e-03 0
3.798125e+00 2.655277e-03 0
3.797296e+00 2.718643e-03 0
3.796453e+00 2.777868e-03 0
3.795595e+00 2.833149e-03 0
3.794724e+00 2.884678e-03 0
3.793841e+00 2.932643e-03 0
3.792946e+00 2.977214e-03 0
3.792040e+00 3.018550e-03 0
3.791124e+00 3.056797e-03 0
3.790199e+00 3.092102e-03 0
3.789265e+00 3.124616e-03 0
3.788322e+00 3.154488e-03 0
3.787373e+00 3.181856e-03 0
3.786416e+00 3.206850e-03 0
3.785453e+00 3.229587e-03 0
3.784484e+00 3.250178e-03 0
3.783510e+00 3.268730e-03 0
3.782531e+00 3.285347e-03 0
3.781547e+00 3.300128e-03 0
3.780560e+00 3.313168e-03 0
3.779568e+00 3.324560e-03 0
3.778574e+00 3.334390e-03 0
3.777576e+00 3.342743e-03 0
3.776576e+00 3.349695e-03 0
3.775574e+00 3.355314e-03 0
3.774569e+00 3.359663e-03 0
3.773563e+00 3.362804e-03 0
3.772556e+00 3.364799e-03 0
3.771547e+00 3.365706e-03 0
3.770538e+00 3.365583e-03 0
3.769528e+00 3.364480e-03 0
3.768518e+00 3.362446e-03 0
3.767507e+00 3.359522e-03 0
3.766496e+00 3.355750e-03 0
3.765486e+00 3.351169e-03 0
3.764476e+00 3.345815e-03 0
3.763466e+00 3.339723e-03 0
3.762458e+00 3.332922e-03 0
3.761450e+00 3.325443e-03 0
3.760443e+00 3.317313e-03 0
3.759438e+00 3.308560e-03 0
3.758434e+00 3.299208e-03 0
3.757431e+00 3.289278e-03 0
3.756430e+00 3.278786e-03 0
3.755431e+00 3.267749e-03 0
3.754434e+00 3.256181e-03 0
3.753439e+00 3.244097e-03 0
3.752446e+00 3.231510e-03 0
3.751456e+00 3.218432e-03 0
3.750467e+00 3.204875e-03 0
3.749482e+00 3.190848e-03 0
3.748499e+00 3.176356e-03 0
3.747519e+00 3.161405e-03 0
3.746542e+00 3.146001e-03 0
3.745568e+00 3.130146e-03 0
3.744597e+00 3.113846e-03 0
3.743629e+00 3.097103e-03 0
3.742665e+00 3.079920e-03 0
3.741704e+00 3.062298e-03 0
3.740747e+00 3.044238e-03 0
3.739793e+00 3.025738e-03 0
3.738843e+00 3.006796e-03 0
3.737897e+00 2.987409e-03 0
3.736956e+00 2.967573e-03 0
3.736018e+00 2.947282e-03 0
3.735085e+00 2.926526e-03 0
3.734156e+00 2.905293e-03 0
3.733231e+00 2.883564e-03 0
3.732311e+00 2.861312e-03 0
3.731396e+00 2.838498e-03 0
3.730486e+00 2.815062e-03 0
3.729581e+00 2.790920e-03 0
3.728681e+00 2.765945e-03 0
3.727787e+00 2.739954e-03 0
3.726897e+00 2.712667e-03 0
3.726014e+00 2.683672e-03 0
3.725136e+00 2.652340e-03 0
3.724265e+00 2.617715e-03 0
3.723399e+00 2.578343e-03 0
3.722539e+00 2.532083e-03 0
3.721684e+00 2.476184e-03 0
3.720828e+00 2.407770e-03 0
3.719964e+00 2.344697e-03 0
3.719964e+00 2.319305e-03 0
4.350559e+00 -9.711373e-05 0
4.350559e+00 -8.913587e-05 0
4.350588e+00 -5.849114e-05 0
4.350611e+00 1.908138e-06 0
4.350625e+00 9.375809e-05 0
4.350626e+00 2.197438e-04 0
4.350611e+00 3.830268e-04 0
4.350574e+00 5.876035e-04 0
4.350509e+00 8.382639e-04 0
4.350410e+00 1.140553e-03 0
4.350269e+00 1.500757e-03 0
4.350079e+00 1.925917e-03 0
4.349830e+00 2.423838e-03 0
4.349512e+00 3.003158e-03 0
4.349111e+00 3.673500e-03 0
4.348617e+00 4.445629e-03 0
4.348013e+00 5.331748e-03 0
4.347286e+00 6.345876e-03 0
4.346418e+00 7.504327e-03 0
4.345390e+00 8.826424e-03 0
4.344183e+00 1.033539e-02 0
4.342773e+00 1.205952e-02 0
4.341136e+00 1.403369e-02 0
4.339242e+00 1.630134e-02 0
4.337055e+00 1.891690e-02 0
4.334527e+00 2.194909e-02 0
4.331589e+00 2.548460e-02 0
4.328130e+00 2.963078e-02 0
4.323952e+00 3.450992e-02 0
4.318672e+00 4.021601e-02 0
4.311519e+00 4.663215e-02 0
4.301002e+00 5.281784e-02 0
4.284808e+00 5.539003e-02 0
4.265933e+00 4.967553e-02 0
4.256831e+00 3.841185e-02 0
4.253389e+00 2.794580e-02 0
4.252386e+00 1.986763e-02 0
4.252303e+00 1.397143e-02 0
4.252519e+00 9.722544e-03 0
4.252801e+00 6.658285e-03 0
4.253069e+00 4.441382e-03 0
4.253300e+00 2.835469e-03 0
4.253486e+00 1.675359e-03 0
4.253626e+00 8.454472e-04 0
4.253716e+00 2.646755e-04 0
4.253759e+00 -1.274502e-04 0
4.253753e+00 -3.748765e-04 0
4.253700e+00 -5.073751e-04 0
4.253605e+00 -5.480301e-04 0
4.253473e+00 -5.155189e-04 0
4.253309e+00 -4.252728e-04 0
4.253117e+00 -2.899236e-04 0
4.252902e+00 -1.217123e-04 0
4.252666e+00 6.688864e-05 0
4.252413e+00 2.694147e-04 0
4.252136e+00 4.815118e-04 0
4.251835e+00 6.968957e-04 0
4.251511e+00 9.106861e-04 0
4.251163e+00 1.119139e-03 0
4.250789e+00 1.320057e-03 0
4.250389e+00 1.512341e-03 0
4.249963e+00 1.695669e-03 0
4.249511e+00 1.870126e-03 0
4.249035e+00 2.035947e-03 0
4.248535e+00 2.193400e-03 0
4.248012e+00 2.342749e-03 0
4.247467e+00 2.484255e-03 0
4.246901e+00 2.618184e-03 0
4.246316e+00 2.744805e-03 0
4.245712e+00 2.864392e-03 0
4.245091e+00 2.977212e-03 0
4.244453e+00 3.083531e-03 0