<?xml version="1.0"?>
<VTKFile type="StructuredGrid">
<StructuredGrid WholeExtent="0 158 0 30 0 0 ">
<Piece Extent="0 158 0 30 0 0 ">
<Points>
<DataArray type="Float64" format="ascii" NumberOfComponents="3">
0.000000e+00 0.000000e+00 0.000000e+00
3.164557e-02 0.000000e+00 0.000000e+00
6.329114e-02 0.000000e+00 0.000000e+00
9.493671e-02 0.000000e+00 0.000000e+00
1.265823e-01 0.000000e+00 0.000000e+00
1.582278e-01 0.000000e+00 0.000000e+00
1.898734e-01 0.000000e+00 0.000000e+00
2.215190e-01 0.000000e+00 0.000000e+00
2.531646e-01 0.000000e+00 0.000000e+00
2.848101e-01 0.000000e+00 0.000000e+00
3.164557e-01 0.000000e+00 0.000000e+00
3.481013e-01 0.000000e+00 0.000000e+00
3.797468e-01 0.000000e+00 0.000000e+00
4.113924e-01 0.000000e+00 0.000000e+00
4.430380e-01 0.000000e+00 0.000000e+00
4.746835e-01 0.000000e+00 0.000000e+00
5.063291e-01 0.000000e+00 0.000000e+00
5.379747e-01 0.000000e+00 0.000000e+00
5.696203e-01 0.000000e+00 0.000000e+00
6.012658e-01 0.000000e+00 0.000000e+00
6.329114e-01 0.000000e+00 0.000000e+00
6.645570e-01 0.000000e+00 0.000000e+00
6.962025e-01 0.000000e+00 0.000000e+00
7.278481e-01 0.000000e+00 0.000000e+00
7.594937e-01 0.000000e+00 0.000000e+00
7.911392e-01 0.000000e+00 0.000000e+00
8.227848e-01 0.000000e+00 0.000000e+00
8.544304e-01 0.000000e+00 0.000000e+00
8.860759e-01 0.000000e+00 0.000000e+00
9.177215e-01 0.000000e+00 0.000000e+00
9.493671e-01 0.000000e+00 0.000000e+00
9.810127e-01 0.000000e+00 0.000000e+00
1.012658e+00 0.000000e+00 0.000000e+00
1.044304e+00 0.000000e+00 0.000000e+00
1.075949e+00 0.000000e+00 0.000000e+00
1.107595e+00 0.000000e+00 0.000000e+00
1.139241e+00 0.000000e+00 0.000000e+00
1.170886e+00 0.000000e+00 0.000000e+00
1.202532e+00 0.000000e+00 0.000000e+00
1.234177e+00 0.000000e+00 0.000000e+00
1.265823e+00 0.000000e+00 0.000000e+00
1.297468e+00 0.000000e+00 0.000000e+00
1.329114e+00 0.000000e+00 0.000000e+00
1.360759e+00 0.000000e+00 0.000000e+00
1.392405e+00 0.000000e+00 0.000000e+00
1.424051e+00 0.000000e+00 0.000000e+00
1.455696e+00 0.000000e+00 0.000000e+00
1.487342e+00 0.000000e+00 0.000000e+00
1.518987e+00 0.000000e+00 0.000000e+00
1.550633e+00 0.000000e+00 0.000000e+00
1.582278e+00 0.000000e+00 0.000000e+00
1.613924e+00 0.000000e+00 0.000000e+00
1.645570e+00 0.000000e+00 0.000000e+00
1.677215e+00 0.000000e+00 0.000000e+00
1.708861e+00 0.000000e+00 0.000000e+00
1.740506e+00 0.000000e+00 0.000000e+00
1.772152e+00 0.000000e+00 0.000000e+00
1.803797e+00 0.000000e+00 0.000000e+00
1.835443e+00 0.000000e+00 0.000000e+00
1.867089e+00 0.000000e+00 0.000000e+00
1.898734e+00 0.000000e+00 0.000000e+00
1.930380e+00 0.000000e+00 0.000000e+00
1.962025e+00 0.000000e+00 0.000000e+00
1.993671e+00 0.000000e+00 0.000000e+00
2.025316e+00 0.000000e+00 0.000000e+00
2.056962e+00 0.000000e+00 0.000000e+00
2.088608e+00 0.000000e+00 0.000000e+00
2.120253e+00 0.000000e+00 0.000000e+00
2.151899e+00 0.000000e+00 0.000000e+00
2.183544e+00 0.000000e+00 0.000000e+00
2.215190e+00 0.000000e+00 0.000000e+00
2.246835e+00 0.000000e+00 0.000000e+00
2.278481e+00 0.000000e+00 0.000000e+00
2.310127e+00 0.000000e+00 0.000000e+00
2.341772e+00 0.000000e+00 0.000000e+00
2.373418e+00 0.000000e+00 0.000000e+00
2.405063e+00 0.000000e+00 0.000000e+00
2.436709e+00 0.000000e+00 0.000000e+00
2.468354e+00 0.000000e+00 0.000000e+00
2.500000e+00 0.000000e+00 0.000000e+00
2.531646e+00 0.000000e+00 0.000000e+00
2.563291e+00 0.000000e+00 0.000000e+00
2.594937e+00 0.000000e+00 0.000000e+00
2.626582e+00 0.000000e+00 0.000000e+00
2.658228e+00 0.000000e+00 0.000000e+00
2.689873e+00 0.000000e+00 0.000000e+00
2.721519e+00 0.000000e+00 0.000000e+00
2.753165e+00 0.000000e+00 0.000000e+00
2.784810e+00 0.000000e+00 0.000000e+00
2.816456e+00 0.000000e+00 0.000000e+00
2.848101e+00 0.000000e+00 0.000000e+00
2.879747e+00 0.000000e+00 0.000000e+00
2.911392e+00 0.000000e+00 0.000000e+00
2.943038e+00 0.000000e+00 0.000000e+00
2.974684e+00 0.000000e+00 0.000000e+00
3.006329e+00 0.000000e+00 0.000000e+00
3.037975e+00 0.000000e+00 0.000000e+00
3.069620e+00 0.000000e+00 0.000000e+00
3.101266e+00 0.000000e+00 0.000000e+00
3.132911e+00 0.000000e+00 0.000000e+00
3.164557e+00 0.000000e+00 0.000000e+00
3.196203e+00 0.000000e+00 0.000000e+00
3.227848e+00 0.000000e+00 0.000000e+00
3.259494e+00 0.000000e+00 0.000000e+00
3.291139e+00 0.000000e+00 0.000000e+00
3.322785e+00 0.000000e+00 0.000000e+00
3.354430e+00 0.000000e+00 0.000000e+00
3.386076e+00 0.000000e+00 0.000000e+00
3.417722e+00 0.000000e+00 0.000000e+00
3.449367e+00 0.000000e+00 0.000000e+00
3.481013e+00 0.000000e+00 0.000000e+00
3.512658e+00 0.000000e+00 0.000000e+00
3.544304e+00 0.000000e+00 0.000000e+00
3.575949e+00 0.000000e+00 0.000000e+00
3.607595e+00 0.000000e+00 0.000000e+00
3.639241e+00 0.000000e+00 0.000000e+00
3.670886e+00 0.000000e+00 0.000000e+00
3.702532e+00 0.000000e+00 0.000000e+00
3.734177e+00 0.000000e+00 0.000000e+00
3.765823e+00 0.000000e+00 0.000000e+00
3.797468e+00 0.000000e+00 0.000000e+00
3.829114e+00 0.000000e+00 0.000000e+00
3.860759e+00 0.000000e+00 0.000000e+00
3.892405e+00 0.000000e+00 0.000000e+00
3.924051e+00 0.000000e+00 0.000000e+00
3.955696e+00 0.000000e+00 0.000000e+00
3.987342e+00 0.000000e+00 0.000000e+00
4.018987e+00 0.000000e+00 0.000000e+00
4.050633e+00 0.000000e+00 0.000000e+00
4.082278e+00 0.000000e+00 0.000000e+00
4.113924e+00 0.000000e+00 0.000000e+00
4.145570e+00 0.000000e+00 0.000000e+00
4.177215e+00 0.000000e+00 0.000000e+00
4.208861e+00 0.000000e+00 0.000000e+00
4.240506e+00 0.000000e+00 0.000000e+00
4.272152e+00 0.000000e+00 0.000000e+00
4.303797e+00 0.000000e+00 0.000000e+00
4.335443e+00 0.000000e+00 0.000000e+00
4.367089e+00 0.000000e+00 0.000000e+00
4.398734e+00 0.000000e+00 0.000000e+00
4.430380e+00 0.000000e+00 0.000000e+00
4.462025e+00 0.000000e+00 0.000000e+00
4.493671e+00 0.000000e+00 0.000000e+00
4.525316e+00 0.000000e+00 0.000000e+00
4.556962e+00 0.000000e+00 0.000000e+00
4.588608e+00 0.000000e+00 0.000000e+00
4.620253e+00 0.000000e+00 0.000000e+00
4.651899e+00 0.000000e+00 0.000000e+00
4.683544e+00 0.000000e+00 0.000000e+00
4.715190e+00 0.000000e+00 0.000000e+00
4.746835e+00 0.000000e+00 0.000000e+00
4.778481e+00 0.000000e+00 0.000000e+00
4.810127e+00 0.000000e+00 0.000000e+00
4.841772e+00 0.000000e+00 0.000000e+00
4.873418e+00 0.000000e+00 0.000000e+00
4.905063e+00 0.000000e+00 0.000000e+00
4.936709e+00 0.000000e+00 0.000000e+00
4.968354e+00 0.000000e+00 0.000000e+00
5.000000e+00 0.000000e+00 0.000000e+00
0.000000e+00 3.333333e-02 0.000000e+00
3.164557e-02 3.333333e-02 0.000000e+00
6.329114e-02 3.333333e-02 0.000000e+00
9.493671e-02 3.333333e-02 0.000000e+00
1.265823e-01 3.333333e-02 0.000000e+00
1.582278e-01 3.333333e-02 0.000000e+00
1.898734e-01 3.333333e-02 0.000000e+00
2.215190e-01 3.333333e-02 0.000000e+00
2.531646e-01 3.333333e-02 0.000000e+00
2.848101e-01 3.333333e-02 0.000000e+00
3.164557e-01 3.333333e-02 0.000000e+00
3.481013e-01 3.333333e-02 0.000000e+00
3.797468e-01 3.333333e-02 0.000000e+00
4.113924e-01 3.333333e-02 0.000000e+00
4.430380e-01 3.333333e-02 0.000000e+00
4.746835e-01 3.333333e-02 0.000000e+00
5.063291e-01 3.333333e-02 0.000000e+00
5.379747e-01 3.333333e-02 0.000000e+00
5.696203e-01 3.333333e-02 0.000000e+00
6.012658e-01 3.333333e-02 0.000000e+00
6.329114e-01 3.333333e-02 0.000000e+00
6.645570e-01 3.333333e-02 0.000000e+00
6.962025e-01 3.333333e-02 0.000000e+00
7.278481e-01 3.333333e-02 0.000000e+00
7.594937e-01 3.333333e-02 0.000000e+00
7.911392e-01 3.333333e-02 0.000000e+00
8.227848e-01 3.333333e-02 0.000000e+00
8.544304e-01 3.333333e-02 0.000000e+00
8.860759e-01 3.333333e-02 0.000000e+00
9.177215e-01 3.333333e-02 0.000000e+00
9.493671e-01 3.333333e-02 0.000000e+00
9.810127e-01 3.333333e-02 0.000000e+00
1.012658e+00 3.333333e-02 0.000000e+00
1.044304e+00 3.333333e-02 0.000000e+00
1.075949e+00 3.333333e-02 0.000000e+00
1.107595e+00 3.333333e-02 0.000000e+00
1.139241e+00 3.333333e-02 0.000000e+00
1.170886e+00 3.333333e-02 0.000000e+00
1.202532e+00 3.333333e-02 0.000000e+00
1.234177e+00 3.333333e-02 0.000000e+00
1.265823e+00 3.333333e-02 0.000000e+00
1.297468e+00 3.333333e-02 0.000000e+00
1.329114e+00 3.333333e-02 0.000000e+00
1.360759e+00 3.333333e-02 0.000000e+00
1.392405e+00 3.333333e-02 0.000000e+00
1.424051e+00 3.333333e-02 0.000000e+00
1.455696e+00 3.333333e-02 0.000000e+00
1.487342e+00 3.333333e-02 0.000000e+00
1.518987e+00 3.333333e-02 0.000000e+00
1.550633e+00 3.333333e-02 0.000000e+00
1.582278e+00 3.333333e-02 0.000000e+00
1.613924e+00 3.333333e-02 0.000000e+00
1.645570e+00 3.333333e-02 0.000000e+00
1.677215e+00 3.333333e-02 0.000000e+00
1.708861e+00 3.333333e-02 0.000000e+00
1.740506e+00 3.333333e-02 0.000000e+00
1.772152e+00 3.333333e-02 0.000000e+00
1.803797e+00 3.333333e-02 0.000000e+00
1.835443e+00 3.333333e-02 0.000000e+00
1.867089e+00 3.333333e-02 0.000000e+00
1.898734e+00 3.333333e-02 0.000000e+00
1.930380e+00 3.333333e-02 0.000000e+00
1.962025e+00 3.333333e-02 0.000000e+00
1.993671e+00 3.333333e-02 0.000000e+00
2.025316e+00 3.333333e-02 0.000000e+00
2.056962e+00 3.333333e-02 0.000000e+00
2.088608e+00 3.333333e-02 0.000000e+00
2.120253e+00 3.333333e-02 0.000000e+00
2.151899e+00 3.333333e-02 0.000000e+00
2.183544e+00 3.333333e-02 0.000000e+00
2.215190e+00 3.333333e-02 0.000000e+00
2.246835e+00 3.333333e-02 0.000000e+00
2.278481e+00 3.333333e-02 0.000000e+00
2.310127e+00 3.333333e-02 0.000000e+00
2.341772e+00 3.333333e-02 0.000000e+00
2.373418e+00 3.333333e-02 0.000000e+00
2.405063e+00 3.333333e-02 0.000000e+00
2.436709e+00 3.333333e-02 0.000000e+00
2.468354e+00 3.333333e-02 0.000000e+00
2.500000e+00 3.333333e-02 0.000000e+00
2.531646e+00 3.333333e-02 0.000000e+00
2.563291e+00 3.333333e-02 0.000000e+00
2.594937e+00 3.333333e-02 0.000000e+00
2.626582e+00 3.333333e-02 0.000000e+00
2.658228e+00 3.333333e-02 0.000000e+00
2.689873e+00 3.333333e-02 0.000000e+00
2.721519e+00 3.333333e-02 0.000000e+00
2.753165e+00 3.333333e-02 0.000000e+00
2.784810e+00 3.333333e-02 0.000000e+00
2.816456e+00 3.333333e-02 0.000000e+00
2.848101e+00 3.333333e-02 0.000000e+00
2.879747e+00 3.333333e-02 0.000000e+00
[...]
<PointData>
<DataArray Name="Velocity" type="Float64" format="ascii" NumberOfComponents="3">
0.000000e+00 0.000000e+00 0
0.000000e+00 0.000000e+00 0
0.000000e+00 0.000000e+00 0
0.000000e+00 0.000000e+00 0
0.000000e+00 0.000000e+00 0
0.000000e+00 0.000000e+00 0
0.000000e+00 0.000000e+00 0
0.000000e+00 0.000000e+00 0
0.000000e+00 0.000000e+00 0
0.000000e+00 0.000000e+00 0
0.000000e+00 0.000000e+00 0
0.000000e+00 0.000000e+00 0
0.000000e+00 0.000000e+00 0
0.000000e+00 0.000000e+00 0
0.000000e+00 0.000000e+00 0
0.000000e+00 0.000000e+00 0
0.000000e+00 0.000000e+00 0
0.000000e+00 0.000000e+00 0
0.000000e+00 0.000000e+00 0
1.114263e-17 0.000000e+00 0
0.000000e+00 0.000000e+00 0
0.000000e+00 0.000000e+00 0
0.000000e+00 0.000000e+00 0
-2.762508e-17 0.000000e+00 0
0.000000e+00 0.000000e+00 0
0.000000e+00 0.000000e+00 0
0.000000e+00 0.000000e+00 0
1.170862e-17 0.000000e+00 0
0.000000e+00 0.000000e+00 0
0.000000e+00 0.000000e+00 0
0.000000e+00 0.000000e+00 0
5.884491e-18 0.000000e+00 0
0.000000e+00 0.000000e+00 0
0.000000e+00 0.000000e+00 0
0.000000e+00 0.000000e+00 0
0.000000e+00 0.000000e+00 0
0.000000e+00 0.000000e+00 0
0.000000e+00 0.000000e+00 0
-2.739953e-17 0.000000e+00 0
0.000000e+00 0.000000e+00 0
0.000000e+00 0.000000e+00 0
0.000000e+00 0.000000e+00 0
0.000000e+00 0.000000e+00 0
0.000000e+00 0.000000e+00 0
0.000000e+00 0.000000e+00 0
0.000000e+00 0.000000e+00 0
-1.614222e-17 0.000000e+00 0
0.000000e+00 0.000000e+00 0
0.000000e+00 0.000000e+00 0
0.000000e+00 0.000000e+00 0
0.000000e+00 0.000000e+00 0
0.000000e+00 0.000000e+00 0
0.000000e+00 0.000000e+00 0
0.000000e+00 0.000000e+00 0
-2.016137e-17 0.000000e+00 0
0.000000e+00 0.000000e+00 0
0.000000e+00 0.000000e+00 0
0.000000e+00 0.000000e+00 0
0.000000e+00 0.000000e+00 0
0.000000e+00 0.000000e+00 0
0.000000e+00 0.000000e+00 0
0.000000e+00 0.000000e+00 0
-1.451899e-17 0.000000e+00 0
0.000000e+00 0.000000e+00 0
0.000000e+00 0.000000e+00 0
0.000000e+00 0.000000e+00 0
0.000000e+00 0.000000e+00 0
0.000000e+00 0.000000e+00 0
0.000000e+00 0.000000e+00 0
0.000000e+00 0.000000e+00 0
0.000000e+00 0.000000e+00 0
0.000000e+00 0.000000e+00 0
0.000000e+00 0.000000e+00 0
0.000000e+00 0.000000e+00 0
0.000000e+00 0.000000e+00 0
0.000000e+00 0.000000e+00 0
0.000000e+00 0.000000e+00 0
0.000000e+00 0.000000e+00 0
0.000000e+00 0.000000e+00 0
0.000000e+00 0.000000e+00 0
0.000000e+00 0.000000e+00 0
0.000000e+00 0.000000e+00 0
0.000000e+00 0.000000e+00 0
0.000000e+00 0.000000e+00 0
0.000000e+00 0.000000e+00 0
0.000000e+00 0.000000e+00 0
0.000000e+00 0.000000e+00 0
0.000000e+00 0.000000e+00 0
0.000000e+00 0.000000e+00 0
0.000000e+00 0.000000e+00 0
0.000000e+00 0.000000e+00 0
0.000000e+00 0.000000e+00 0
0.000000e+00 0.000000e+00 0
0.000000e+00 0.000000e+00 0
0.000000e+00 0.000000e+00 0
0.000000e+00 0.000000e+00 0
0.000000e+00 0.000000e+00 0
0.000000e+00 0.000000e+00 0
0.000000e+00 0.000000e+00 0
0.000000e+00 0.000000e+00 0
0.000000e+00 0.000000e+00 0
0.000000e+00 0.000000e+00 0
0.000000e+00 0.000000e+00 0
0.000000e+00 0.000000e+00 0
0.000000e+00 0.000000e+00 0
0.000000e+00 0.000000e+00 0
0.000000e+00 0.000000e+00 0
0.000000e+00 0.000000e+00 0
0.000000e+00 0.000000e+00 0
0.000000e+00 0.000000e+00 0
0.000000e+00 0.000000e+00 0
0.000000e+00 0.000000e+00 0
0.000000e+00 0.000000e+00 0
0.000000e+00 0.000000e+00 0
0.000000e+00 0.000000e+00 0
0.000000e+00 0.000000e+00 0
0.000000e+00 0.000000e+00 0
0.000000e+00 0.000000e+00 0
0.000000e+00 0.000000e+00 0
0.000000e+00 0.000000e+00 0
0.000000e+00 0.000000e+00 0
0.000000e+00 0.000000e+00 0
0.000000e+00 0.000000e+00 0
0.000000e+00 0.000000e+00 0
0.000000e+00 0.000000e+00 0
0.000000e+00 0.000000e+00 0
0.000000e+00 0.000000e+00 0
0.000000e+00 0.000000e+00 0
0.000000e+00 0.000000e+00 0
0.000000e+00 0.000000e+00 0
0.000000e+00 0.000000e+00 0
0.000000e+00 0.000000e+00 0
0.000000e+00 0.000000e+00 0
0.000000e+00 0.000000e+00 0
0.000000e+00 0.000000e+00 0
0.000000e+00 0.000000e+00 0
0.000000e+00 0.000000e+00 0
0.000000e+00 0.000000e+00 0
0.000000e+00 0.000000e+00 0
0.000000e+00 0.000000e+00 0
0.000000e+00 0.000000e+00 0
0.000000e+00 0.000000e+00 0
0.000000e+00 0.000000e+00 0
0.000000e+00 0.000000e+00 0
0.000000e+00 0.000000e+00 0
0.000000e+00 0.000000e+00 0
0.000000e+00 0.000000e+00 0
0.000000e+00 0.000000e+00 0
0.000000e+00 0.000000e+00 0
0.000000e+00 0.000000e+00 0
0.000000e+00 0.000000e+00 0
0.000000e+00 0.000000e+00 0
0.000000e+00 0.000000e+00 0
0.000000e+00 0.000000e+00 0
0.000000e+00 0.000000e+00 0
0.000000e+00 0.000000e+00 0
0.000000e+00 0.000000e+00 0
0.000000e+00 0.000000e+00 0
0.000000e+00 0.000000e+00 0
1.580757e+00 -6.316676e-05 0
1.580757e+00 -6.807371e-05 0
1.580814e+00 -6.394222e-05 0
1.580855e+00 -3.683966e-05 0
1.580868e+00 2.794969e-06 0
1.580842e+00 5.198205e-05 0
1.580762e+00 1.145430e-04 0
1.580616e+00 1.928345e-04 0
1.580388e+00 2.890751e-04 0
1.580059e+00 4.056633e-04 0
1.579608e+00 5.452670e-04 0
1.579013e+00 7.108964e-04 0
1.578247e+00 9.059226e-04 0
1.577281e+00 1.134130e-03 0
1.576080e+00 1.399823e-03 0
1.574608e+00 1.707927e-03 0
1.572820e+00 2.064137e-03 0
1.570669e+00 2.475093e-03 0
1.568098e+00 2.948595e-03 0
1.565045e+00 3.493874e-03 0
1.561436e+00 4.121955e-03 0
1.557187e+00 4.846051e-03 0
1.552198e+00 5.681911e-03 0
1.546356e+00 6.648041e-03 0
1.539524e+00 7.765175e-03 0
1.531549e+00 9.054357e-03 0
1.522252e+00 1.053220e-02 0
1.511440e+00 1.220027e-02 0
1.498924e+00 1.402445e-02 0
1.484563e+00 1.589957e-02 0
1.468351e+00 1.760017e-02 0
1.450579e+00 1.874410e-02 0
1.432035e+00 1.884973e-02 0
1.414092e+00 1.760653e-02 0
1.398268e+00 1.522572e-02 0
1.385344e+00 1.231214e-02 0
1.375372e+00 9.421150e-03 0
1.368005e+00 6.874472e-03 0
1.362763e+00 4.785811e-03 0
1.359179e+00 3.144269e-03 0
1.356858e+00 1.880622e-03 0
1.355493e+00 8.992297e-04 0
1.354857e+00 8.242658e-06 0
1.354778e+00 -8.050596e-04 0
1.355138e+00 -1.421036e-03 0
1.355818e+00 -1.857169e-03 0
1.356714e+00 -2.136558e-03 0
1.357740e+00 -2.284288e-03 0
1.358821e+00 -2.324576e-03 0
1.359902e+00 -2.279289e-03 0
1.360934e+00 -2.167385e-03 0
1.361883e+00 -2.004886e-03 0
1.362722e+00 -1.805140e-03 0
1.363430e+00 -1.579197e-03 0
1.363995e+00 -1.336139e-03 0
1.364407e+00 -1.083171e-03 0
1.364662e+00 -8.257502e-04 0
1.364762e+00 -5.657681e-04 0
1.364725e+00 -3.162790e-04 0
1.364565e+00 -1.062835e-04 0
1.364296e+00 4.736761e-05 0
1.363927e+00 1.611984e-04 0
1.363467e+00 2.583202e-04 0
1.362923e+00 3.457973e-04 0
1.362303e+00 4.262624e-04 0
1.361611e+00 5.009627e-04 0
1.360852e+00 5.706474e-04 0
1.360029e+00 6.358445e-04 0
1.359148e+00 6.969475e-04 0
1.358211e+00 7.542492e-04 0
1.357222e+00 8.079685e-04 0
1.356184e+00 8.582815e-04 0
1.355100e+00 9.053499e-04 0
1.353973e+00 9.493386e-04 0
1.352806e+00 9.904197e-04 0
1.351601e+00 1.028765e-03 0
1.350360e+00 1.064532e-03 0
1.349086e+00 1.097863e-03 0
1.347781e+00 1.128878e-03 0
1.346447e+00 1.157688e-03 0
1.345086e+00 1.184398e-03 0
1.343701e+00 1.209116e-03 0
1.342291e+00 1.231951e-03 0
1.340860e+00 1.253009e-03 0
1.339409e+00 1.272388e-03 0
1.337939e+00 1.290183e-03 0
1.336452e+00 1.306476e-03 0
1.334950e+00 1.321346e-03 0
1.333432e+00 1.334862e-03 0
1.331901e+00 1.347092e-03 0
1.330358e+00 1.358101e-03 0
1.328804e+00 1.367956e-03 0
1.327239e+00 1.376726e-03 0
1.325666e+00 1.384480e-03 0
1.324084e+00 1.391276e-03 0
1.322494e+00 1.397163e-03 0
1.320898e+00 1.402183e-03 0
1.319296e+00 1.406370e-03 0
1.317689e+00 1.409762e-03 0
1.316078e+00 1.412400e-03 0
1.314463e+00 1.414329e-03 0
1.312845e+00 1.415594e-03 0
1.311224e+00 1.416238e-03 0
1.309601e+00 1.416295e-03 0
1.307977e+00 1.415794e-03 0
1.306353e+00 1.414756e-03 0
1.304727e+00 1.413200e-03 0
1.303102e+00 1.411146e-03 0
1.301478e+00 1.408619e-03 0
1.299854e+00 1.405641e-03 0
1.298232e+00 1.402235e-03 0
1.296611e+00 1.398423e-03 0
1.294993e+00 1.394225e-03 0
1.293377e+00 1.389659e-03 0
1.291764e+00 1.384741e-03 0
1.290154e+00 1.379484e-03 0
1.288547e+00 1.373896e-03 0
1.286945e+00 1.367984e-03 0
1.285346e+00 1.361758e-03 0
1.283752e+00 1.355224e-03 0
1.282162e+00 1.348393e-03 0
1.280578e+00 1.341272e-03 0
1.278999e+00 1.333869e-03 0
1.277425e+00 1.326191e-03 0
1.275857e+00 1.318246e-03 0
1.274295e+00 1.310037e-03 0
1.272739e+00 1.301565e-03 0
1.271190e+00 1.292833e-03 0
1.269648e+00 1.283839e-03 0
1.268112e+00 1.274583e-03 0
1.266584e+00 1.265063e-03 0
1.265064e+00 1.255278e-03 0
1.263551e+00 1.245229e-03 0
1.262047e+00 1.234913e-03 0
1.260551e+00 1.224328e-03 0
1.259063e+00 1.213472e-03 0
1.257585e+00 1.202338e-03 0
1.256115e+00 1.190922e-03 0
1.254655e+00 1.179215e-03 0
1.253205e+00 1.167209e-03 0
1.251765e+00 1.154893e-03 0
1.250335e+00 1.142252e-03 0
1.248916e+00 1.129270e-03 0
1.247508e+00 1.115923e-03 0
1.246111e+00 1.102180e-03 0
1.244727e+00 1.087998e-03 0
1.243354e+00 1.073316e-03 0
1.241995e+00 1.058046e-03 0
1.240648e+00 1.042065e-03 0
1.239317e+00 1.025184e-03 0
1.238000e+00 1.007122e-03 0
1.236699e+00 9.874461e-04 0
1.235417e+00 9.654283e-04 0
1.234156e+00 9.397789e-04 0
1.232919e+00 9.077239e-04 0
1.231713e+00 8.641701e-04 0
1.230549e+00 7.581819e-04 0
1.229443e+00 8.853322e-04 0
1.229443e+00 1.093030e-03 0
2.414204e+00 -1.245880e-04 0
2.414204e+00 -1.222992e-04 0
2.414252e+00 -1.032616e-04 0
2.414287e+00 -5.679858e-05 0
2.414302e+00 1.473569e-05 0
2.414284e+00 1.116993e-04 0
2.414220e+00 2.369611e-04 0
2.414099e+00 3.941112e-04 0
2.413906e+00 5.872970e-04 0
2.413624e+00 8.212397e-04 0
2.413237e+00 1.101304e-03 0
2.412723e+00 1.433540e-03 0
2.412058e+00 1.824736e-03 0
2.411218e+00 2.282542e-03 0
2.410172e+00 2.815628e-03 0
2.408886e+00 3.433886e-03 0
2.407323e+00 4.148705e-03 0
2.405440e+00 4.973355e-03 0
2.403189e+00 5.923432e-03 0
2.400514e+00 7.017461e-03 0
2.397350e+00 8.277662e-03 0
2.393625e+00 9.730745e-03 0
2.389251e+00 1.140878e-02 0
2.384128e+00 1.334961e-02 0
2.378134e+00 1.559624e-02 0
2.371129e+00 1.819388e-02 0
2.362940e+00 2.118140e-02 0
2.353368e+00 2.457173e-02 0
2.342181e+00 2.831122e-02 0
2.329138e+00 3.220427e-02 0
2.314050e+00 3.579581e-02 0
2.296965e+00 3.825239e-02 0
2.278561e+00 3.843326e-02 0
2.260680e+00 3.556737e-02 0
2.245729e+00 3.028048e-02 0
2.234329e+00 2.411726e-02 0
2.226052e+00 1.826426e-02 0
2.220203e+00 1.328240e-02 0
2.216147e+00 9.297142e-03 0
2.213393e+00 6.219185e-03 0
2.211580e+00 3.882498e-03 0
2.210445e+00 2.108128e-03 0
2.209780e+00 7.522573e-04 0
2.209324e+00 -2.962223e-04 0
2.209001e+00 -1.094855e-03 0
2.208762e+00 -1.660136e-03 0
2.208573e+00 -2.023755e-03 0
2.208411e+00 -2.219100e-03 0
2.208255e+00 -2.277214e-03 0
2.208092e+00 -2.225531e-03 0
2.207908e+00 -2.087637e-03 0
2.207696e+00 -1.883492e-03 0
2.207446e+00 -1.629850e-03 0
2.207154e+00 -1.340782e-03 0
2.206815e+00 -1.028201e-03 0
2.206426e+00 -7.020871e-04 0
2.205990e+00 -3.735246e-04 0
2.205517e+00 -6.597031e-05 0
2.205010e+00 2.065813e-04 0
2.204467e+00 4.508391e-04 0
2.203870e+00 6.725841e-04 0
2.203202e+00 8.739675e-04 0
2.202461e+00 1.057246e-03 0
2.201650e+00 1.225979e-03 0
2.200772e+00 1.382645e-03 0
2.199832e+00 1.528885e-03 0
2.198834e+00 1.665842e-03 0
2.197779e+00 1.794357e-03 0
2.196673e+00 1.915073e-03 0
2.195517e+00 2.028493e-03 0
2.194314e+00 2.135028e-03 0
2.193068e+00 2.235039e-03 0
2.191780e+00 2.328867e-03 0
2.190453e+00 2.416842e-03 0
2.189090e+00 2.499287e-03 0
2.187692e+00 2.576505e-03 0
2.186261e+00 2.648778e-03 0
2.184800e+00 2.716359e-03 0
2.183310e+00 2.779482e-03 0
2.181794e+00 2.838371e-03 0
2.180252e+00 2.893239e-03 0
2.178686e+00 2.944300e-03 0
2.177098e+00 2.991758e-03 0
2.175489e+00 3.035807e-03 0
2.173861e+00 3.076630e-03 0
2.172214e+00 3.114397e-03 0
2.170551e+00 3.149269e-03 0
2.168871e+00 3.181395e-03 0
2.167177e+00 3.210918e-03 0
2.165469e+00 3.237969e-03 0
2.163749e+00 3.262680e-03 0
2.162016e+00 3.285177e-03 0
2.160272e+00 3.305587e-03 0
2.158519e+00 3.324026e-03 0
2.156755e+00 3.340599e-03 0
2.154984e+00 3.355401e-03 0
2.153204e+00 3.368515e-03 0
2.151417e+00 3.380018e-03 0
2.149623e+00 3.389993e-03 0
2.147824e+00 3.398522e-03 0
2.146018e+00 3.405685e-03 0
2.144208e+00 3.411560e-03 0
2.142394e+00 3.416217e-03 0
2.140575e+00 3.419715e-03 0
2.138754e+00 3.422107e-03 0
2.136929e+00 3.423440e-03 0
2.135102e+00 3.423758e-03 0
2.133272e+00 3.423107e-03 0
2.131441e+00 3.421533e-03 0
2.129608e+00 3.419077e-03 0
2.127775e+00 3.415783e-03 0
2.125940e+00 3.411687e-03 0
2.124106e+00 3.406823e-03 0
2.122271e+00 3.401223e-03 0
2.120437e+00 3.394914e-03 0
2.118603e+00 3.387919e-03 0
2.116770e+00 3.380258e-03 0
2.114938e+00 3.371948e-03 0
2.113108e+00 3.363006e-03 0
2.111279e+00 3.353450e-03 0
2.109453e+00 3.343294e-03 0
2.107628e+00 3.332555e-03 0
2.105806e+00 3.321244e-03 0
2.103987e+00 3.309373e-03 0
2.102170e+00 3.296949e-03 0
2.100357e+00 3.283980e-03 0
2.098547e+00 3.270469e-03 0
2.096741e+00 3.256416e-03 0
2.094939e+00 3.241822e-03 0
2.093141e+00 3.226685e-03 0
2.091348e+00 3.211003e-03 0
2.089559e+00 3.194774e-03 0
2.087775e+00 3.177995e-03 0
2.085996e+00 3.160661e-03 0
2.084222e+00 3.142766e-03 0
2.082454e+00 3.124301e-03 0
2.080692e+00 3.105255e-03 0
2.078937e+00 3.085615e-03 0
2.077187e+00 3.065365e-03 0
2.075445e+00 3.044487e-03 0
2.073709e+00 3.022958e-03 0
2.071981e+00 3.000751e-03 0
2.070260e+00 2.977829e-03 0
2.068547e+00 2.954145e-03 0
2.066843e+00 2.929635e-03 0
2.065147e+00 2.904212e-03 0
2.063461e+00 2.877755e-03 0
2.061784e+00 2.850091e-03 0
2.060117e+00 2.820971e-03 0
2.058460e+00 2.790028e-03 0
2.056816e+00 2.756718e-03 0
2.055184e+00 2.720197e-03 0
2.053565e+00 2.679117e-03 0
2.051962e+00 2.631232e-03 0
2.050377e+00 2.572659e-03 0
2.048812e+00 2.496327e-03 0
2.047267e+00 2.391547e-03 0
2.045699e+00 2.381212e-03 0
2.045699e+00 2.431901e-03 0
2.831150e+00 -1.878567e-04 0
2.831150e+00 -1.811694e-04 0
2.831206e+00 -1.517248e-04 0
2.831253e+00 -8.958758e-05 0
2.831285e+00 6.177006e-06 0
2.831294e+00 1.377387e-04 0
2.831273e+00 3.088826e-04 0
2.831211e+00 5.241640e-04 0
2.831100e+00 7.891680e-04 0
2.830927e+00 1.110414e-03 0
2.830679e+00 1.495348e-03 0
2.830342e+00 1.952355e-03 0
2.829897e+00 2.490848e-03 0
2.829326e+00 3.121408e-03 0
2.828608e+00 3.855966e-03 0
2.827718e+00 4.708057e-03 0
2.826628e+00 5.693239e-03 0
2.825309e+00 6.829552e-03 0
2.823725e+00 8.138173e-03 0
2.821838e+00 9.644343e-03 0
2.819604e+00 1.137841e-02 0
2.816971e+00 1.337720e-02 0
2.813881e+00 1.568546e-02 0
2.810262e+00 1.835728e-02 0
2.806030e+00 2.145711e-02 0
2.801075e+00 2.505887e-02 0
2.795257e+00 2.924047e-02 0
2.788379e+00 3.406704e-02 0
2.780153e+00 3.954738e-02 0
2.770154e+00 4.553100e-02 0
2.757767e+00 5.148790e-02 0
2.742285e+00 5.612482e-02 0
2.723600e+00 5.707039e-02 0
2.704580e+00 5.219058e-02 0
2.690966e+00 4.298252e-02 0
2.682457e+00 3.303823e-02 0
2.677362e+00 2.430052e-02 0
2.674317e+00 1.730814e-02 0
2.672481e+00 1.195862e-02 0
2.671374e+00 7.954214e-03 0
2.670718e+00 4.986403e-03 0
2.670345e+00 2.795449e-03 0
2.670130e+00 1.188515e-03 0
2.669991e+00 1.599826e-05 0
2.669857e+00 -8.285743e-04 0
2.669702e+00 -1.406649e-03 0
2.669516e+00 -1.766605e-03 0
2.669296e+00 -1.949130e-03 0
2.669043e+00 -1.988681e-03 0
2.668759e+00 -1.914383e-03 0
2.668444e+00 -1.750759e-03 0
2.668099e+00 -1.518380e-03 0
2.667727e+00 -1.234451e-03 0
2.667328e+00 -9.134695e-04 0
2.666900e+00 -5.680784e-04 0
2.666448e+00 -2.141566e-04 0
2.665976e+00 1.315536e-04 0
2.665480e+00 4.658890e-04 0
2.664947e+00 7.887663e-04 0
2.664367e+00 1.094281e-03 0
2.663737e+00 1.380078e-03 0
2.663055e+00 1.646164e-03 0
2.662322e+00 1.893675e-03 0
2.661537e+00 2.124493e-03 0
2.660702e+00 2.340401e-03 0
2.659820e+00 2.542872e-03 0
2.658893e+00 2.733081e-03 0
2.657923e+00 2.911968e-03 0
2.656913e+00 3.080289e-03 0
2.655865e+00 3.238669e-03 0
2.654781e+00 3.387651e-03 0
2.653662e+00 3.527729e-03 0
2.652511e+00 3.659375e-03 0
2.651330e+00 3.783041e-03 0
2.650120e+00 3.899157e-03 0
2.648882e+00 4.008124e-03 0
2.647619e+00 4.110313e-03 0
2.646332e+00 4.206068e-03 0
2.645022e+00 4.295711e-03 0
2.643690e+00 4.379551e-03 0
2.642339e+00 4.457892e-03 0
2.640968e+00 4.531022e-03 0
2.639579e+00 4.599219e-03 0
2.638174e+00 4.662745e-03 0
2.636752e+00 4.721844e-03 0
2.635316e+00 4.776747e-03 0
2.633866e+00 4.827674e-03 0
2.632402e+00 4.874831e-03 0
2.630926e+00 4.918414e-03 0
2.629439e+00 4.958610e-03 0
2.627941e+00 4.995597e-03 0
2.626433e+00 5.029551e-03 0
2.624915e+00 5.060637e-03 0
2.623389e+00 5.089012e-03 0
2.621854e+00 5.114815e-03 0
2.620312e+00 5.138173e-03 0
2.618762e+00 5.159204e-03 0
2.617206e+00 5.178023e-03 0
2.615644e+00 5.194744e-03 0
2.614076e+00 5.209479e-03 0
2.612503e+00 5.222338e-03 0
2.610925e+00 5.233421e-03 0
2.609342e+00 5.242816e-03 0
2.607756e+00 5.250603e-03 0
2.606165e+00 5.256853e-03 0
2.604572e+00 5.261635e-03 0
2.602975e+00 5.265015e-03 0
2.601375e+00 5.267055e-03 0
2.599774e+00 5.267819e-03 0
2.598169e+00 5.267364e-03 0
2.596564e+00 5.265745e-03 0
2.594956e+00 5.263011e-03 0
2.593347e+00 5.259207e-03 0
2.591737e+00 5.254375e-03 0
2.590126e+00 5.248550e-03 0
2.588515e+00 5.241763e-03 0
2.586903e+00 5.234043e-03 0
2.585291e+00 5.225413e-03 0
2.583678e+00 5.215900e-03 0
2.582067e+00 5.205524e-03 0
2.580455e+00 5.194309e-03 0
2.578844e+00 5.182272e-03 0
2.577234e+00 5.169429e-03 0
2.575625e+00 5.155794e-03 0
2.574017e+00 5.141377e-03 0
2.572410e+00 5.126185e-03 0
2.570805e+00 5.110221e-03 0
2.569202e+00 5.093488e-03 0
2.567601e+00 5.075984e-03 0
2.566002e+00 5.057709e-03 0
2.564405e+00 5.038659e-03 0
2.562810e+00 5.018830e-03 0
2.561219e+00 4.998217e-03 0
2.559630e+00 4.976811e-03 0
2.558045e+00 4.954602e-03 0
2.556462e+00 4.931577e-03 0
2.554884e+00 4.907720e-03 0
2.553309e+00 4.883011e-03 0
2.551738e+00 4.857430e-03 0
2.550171e+00 4.830951e-03 0
2.548608e+00 4.803542e-03 0
2.547050e+00 4.775165e-03 0
2.545497e+00 4.745773e-03 0
2.543949e+00 4.715303e-03 0
2.542407e+00 4.683670e-03 0
2.540870e+00 4.650762e-03 0
2.539339e+00 4.616422e-03 0
2.537814e+00 4.580433e-03 0
2.536296e+00 4.542481e-03 0
2.534785e+00 4.502118e-03 0
2.533281e+00 4.458690e-03 0
2.531785e+00 4.411225e-03 0
2.530296e+00 4.358284e-03 0
2.528816e+00 4.297713e-03 0
2.527344e+00 4.226431e-03 0
2.525878e+00 4.140583e-03 0
2.524412e+00 4.036483e-03 0
2.522936e+00 3.937435e-03 0
2.522936e+00 3.895407e-03 0
3.047924e+00 -2.565577e-04 0
3.047924e+00 -2.475683e-04 0
3.047990e+00 -2.119174e-04 0
3.048050e+00 -1.398528e-04 0
3.048101e+00 -2.889623e-05 0
3.048139e+00 1.242635e-04 0
3.048159e+00 3.240283e-04 0
3.048155e+00 5.759888e-04 0
3.048120e+00 8.868981e-04 0
3.048047e+00 1.264629e-03 0
3.047927e+00 1.718141e-03 0
3.047750e+00 2.257501e-03 0
3.047502e+00 2.893970e-03 0
3.047172e+00 3.640107e-03 0
3.046744e+00 4.509938e-03 0
3.046201e+00 5.519301e-03 0
3.045526e+00 6.686214e-03 0
3.044698e+00 8.031414e-03 0
3.043695e+00 9.579225e-03 0
3.042494e+00 1.135855e-02 0
3.041067e+00 1.340428e-02 0
3.039386e+00 1.575902e-02 0
3.037417e+00 1.847543e-02 0
3.035121e+00 2.161921e-02 0
3.032449e+00 2.527295e-02 0
3.029335e+00 2.954103e-02 0
3.025682e+00 3.455565e-02 0
3.021327e+00 4.048151e-02 0
3.015977e+00 4.750772e-02 0
3.009060e+00 5.578403e-02 0
2.999422e+00 6.515129e-02 0
2.984839e+00 7.424167e-02 0
2.961896e+00 7.814935e-02 0
2.934713e+00 6.994252e-02 0
2.922003e+00 5.358280e-02 0
2.917574e+00 3.844668e-02 0
2.916633e+00 2.683882e-02 0
2.916939e+00 1.842317e-02 0
2.917594e+00 1.239723e-02 0
2.918273e+00 8.076210e-03 0
2.918871e+00 4.966372e-03 0
2.919358e+00 2.727462e-03 0
2.919722e+00 1.124778e-03 0
2.919976e+00 -8.645297e-06 0
2.920118e+00 -7.902193e-04 0
2.920154e+00 -1.300137e-03 0
2.920099e+00 -1.595896e-03 0
2.919965e+00 -1.721327e-03 0
2.919764e+00 -1.711302e-03 0
2.919508e+00 -1.594248e-03 0
2.919206e+00 -1.393641e-03 0
2.918865e+00 -1.128981e-03 0
2.918491e+00 -8.163393e-04 0
2.918089e+00 -4.686026e-04 0
2.917662e+00 -1.016963e-04 0
2.917213e+00 2.713478e-04 0
2.916738e+00 6.461436e-04 0
2.916233e+00 1.017462e-03 0
2.915696e+00 1.378777e-03 0
2.915126e+00 1.725306e-03 0
2.914521e+00 2.054357e-03 0
2.913881e+00 2.364948e-03 0
2.913203e+00 2.657243e-03 0
2.912488e+00 2.932118e-03 0
2.911738e+00 3.190707e-03 0
2.910953e+00 3.434144e-03 0
2.910134e+00 3.663454e-03 0
2.909284e+00 3.879527e-03 0
2.908403e+00 4.083127e-03 0
2.907494e+00 4.274927e-03 0
2.906558e+00 4.455542e-03 0
2.905596e+00 4.625553e-03 0