<?xml version="1.0"?>
<VTKFile type="StructuredGrid">
<StructuredGrid WholeExtent="0 158 0 30 0 0 ">
<Piece Extent="0 158 0 30 0 0 ">
<Points>
<DataArray type="Float64" format="ascii" NumberOfComponents="3">
0.000000e+00 0.000000e+00 0.000000e+00
3.164557e-02 0.000000e+00 0.000000e+00
6.329114e-02 0.000000e+00 0.000000e+00
9.493671e-02 0.000000e+00 0.000000e+00
1.265823e-01 0.000000e+00 0.000000e+00
1.582278e-01 0.000000e+00 0.000000e+00
1.898734e-01 0.000000e+00 0.000000e+00
2.215190e-01 0.000000e+00 0.000000e+00
2.531646e-01 0.000000e+00 0.000000e+00
2.848101e-01 0.000000e+00 0.000000e+00
3.164557e-01 0.000000e+00 0.000000e+00
3.481013e-01 0.000000e+00 0.000000e+00
3.797468e-01 0.000000e+00 0.000000e+00
4.113924e-01 0.000000e+00 0.000000e+00
4.430380e-01 0.000000e+00 0.000000e+00
4.746835e-01 0.000000e+00 0.000000e+00
5.063291e-01 0.000000e+00 0.000000e+00
5.379747e-01 0.000000e+00 0.000000e+00
5.696203e-01 0.000000e+00 0.000000e+00
6.012658e-01 0.000000e+00 0.000000e+00
6.329114e-01 0.000000e+00 0.000000e+00
6.645570e-01 0.000000e+00 0.000000e+00
6.962025e-01 0.000000e+00 0.000000e+00
7.278481e-01 0.000000e+00 0.000000e+00
7.594937e-01 0.000000e+00 0.000000e+00
7.911392e-01 0.000000e+00 0.000000e+00
8.227848e-01 0.000000e+00 0.000000e+00
8.544304e-01 0.000000e+00 0.000000e+00
8.860759e-01 0.000000e+00 0.000000e+00
9.177215e-01 0.000000e+00 0.000000e+00
9.493671e-01 0.000000e+00 0.000000e+00
9.810127e-01 0.000000e+00 0.000000e+00
1.012658e+00 0.000000e+00 0.000000e+00
1.044304e+00 0.000000e+00 0.000000e+00
1.075949e+00 0.000000e+00 0.000000e+00
1.107595e+00 0.000000e+00 0.000000e+00
1.139241e+00 0.000000e+00 0.000000e+00
1.170886e+00 0.000000e+00 0.000000e+00
1.202532e+00 0.000000e+00 0.000000e+00
1.234177e+00 0.000000e+00 0.000000e+00
1.265823e+00 0.000000e+00 0.000000e+00
1.297468e+00 0.000000e+00 0.000000e+00
1.329114e+00 0.000000e+00 0.000000e+00
1.360759e+00 0.000000e+00 0.000000e+00
1.392405e+00 0.000000e+00 0.000000e+00
1.424051e+00 0.000000e+00 0.000000e+00
1.455696e+00 0.000000e+00 0.000000e+00
1.487342e+00 0.000000e+00 0.000000e+00
1.518987e+00 0.000000e+00 0.000000e+00
1.550633e+00 0.000000e+00 0.000000e+00
1.582278e+00 0.000000e+00 0.000000e+00
1.613924e+00 0.000000e+00 0.000000e+00
1.645570e+00 0.000000e+00 0.000000e+00
1.677215e+00 0.000000e+00 0.000000e+00
1.708861e+00 0.000000e+00 0.000000e+00
1.740506e+00 0.000000e+00 0.000000e+00
1.772152e+00 0.000000e+00 0.000000e+00
1.803797e+00 0.000000e+00 0.000000e+00
1.835443e+00 0.000000e+00 0.000000e+00
1.867089e+00 0.000000e+00 0.000000e+00
1.898734e+00 0.000000e+00 0.000000e+00
1.930380e+00 0.000000e+00 0.000000e+00
1.962025e+00 0.000000e+00 0.000000e+00
1.993671e+00 0.000000e+00 0.000000e+00
2.025316e+00 0.000000e+00 0.000000e+00
2.056962e+00 0.000000e+00 0.000000e+00
2.088608e+00 0.000000e+00 0.000000e+00
2.120253e+00 0.000000e+00 0.000000e+00
2.151899e+00 0.000000e+00 0.000000e+00
2.183544e+00 0.000000e+00 0.000000e+00
2.215190e+00 0.000000e+00 0.000000e+00
2.246835e+00 0.000000e+00 0.000000e+00
2.278481e+00 0.000000e+00 0.000000e+00
2.310127e+00 0.000000e+00 0.000000e+00
2.341772e+00 0.000000e+00 0.000000e+00
2.373418e+00 0.000000e+00 0.000000e+00
2.405063e+00 0.000000e+00 0.000000e+00
2.436709e+00 0.000000e+00 0.000000e+00
2.468354e+00 0.000000e+00 0.000000e+00
2.500000e+00 0.000000e+00 0.000000e+00
2.531646e+00 0.000000e+00 0.000000e+00
2.563291e+00 0.000000e+00 0.000000e+00
2.594937e+00 0.000000e+00 0.000000e+00
2.626582e+00 0.000000e+00 0.000000e+00
2.658228e+00 0.000000e+00 0.000000e+00
2.689873e+00 0.000000e+00 0.000000e+00
2.721519e+00 0.000000e+00 0.000000e+00
2.753165e+00 0.000000e+00 0.000000e+00
2.784810e+00 0.000000e+00 0.000000e+00
2.816456e+00 0.000000e+00 0.000000e+00
2.848101e+00 0.000000e+00 0.000000e+00
2.879747e+00 0.000000e+00 0.000000e+00
2.911392e+00 0.000000e+00 0.000000e+00
2.943038e+00 0.000000e+00 0.000000e+00
2.974684e+00 0.000000e+00 0.000000e+00
3.006329e+00 0.000000e+00 0.000000e+00
3.037975e+00 0.000000e+00 0.000000e+00
3.069620e+00 0.000000e+00 0.000000e+00
3.101266e+00 0.000000e+00 0.000000e+00
3.132911e+00 0.000000e+00 0.000000e+00
3.164557e+00 0.000000e+00 0.000000e+00
3.196203e+00 0.000000e+00 0.000000e+00
3.227848e+00 0.000000e+00 0.000000e+00
3.259494e+00 0.000000e+00 0.000000e+00
3.291139e+00 0.000000e+00 0.000000e+00
3.322785e+00 0.000000e+00 0.000000e+00
3.354430e+00 0.000000e+00 0.000000e+00
3.386076e+00 0.000000e+00 0.000000e+00
3.417722e+00 0.000000e+00 0.000000e+00
3.449367e+00 0.000000e+00 0.000000e+00
3.481013e+00 0.000000e+00 0.000000e+00
3.512658e+00 0.000000e+00 0.000000e+00
3.544304e+00 0.000000e+00 0.000000e+00
3.575949e+00 0.000000e+00 0.000000e+00
3.607595e+00 0.000000e+00 0.000000e+00
3.639241e+00 0.000000e+00 0.000000e+00
3.670886e+00 0.000000e+00 0.000000e+00
3.702532e+00 0.000000e+00 0.000000e+00
3.734177e+00 0.000000e+00 0.000000e+00
3.765823e+00 0.000000e+00 0.000000e+00
3.797468e+00 0.000000e+00 0.000000e+00
3.829114e+00 0.000000e+00 0.000000e+00
3.860759e+00 0.000000e+00 0.000000e+00
3.892405e+00 0.000000e+00 0.000000e+00
3.924051e+00 0.000000e+00 0.000000e+00
3.955696e+00 0.000000e+00 0.000000e+00
3.987342e+00 0.000000e+00 0.000000e+00
4.018987e+00 0.000000e+00 0.000000e+00
4.050633e+00 0.000000e+00 0.000000e+00
4.082278e+00 0.000000e+00 0.000000e+00
4.113924e+00 0.000000e+00 0.000000e+00
4.145570e+00 0.000000e+00 0.000000e+00
4.177215e+00 0.000000e+00 0.000000e+00
4.208861e+00 0.000000e+00 0.000000e+00
4.240506e+00 0.000000e+00 0.000000e+00
4.272152e+00 0.000000e+00 0.000000e+00
4.303797e+00 0.000000e+00 0.000000e+00
4.335443e+00 0.000000e+00 0.000000e+00
4.367089e+00 0.000000e+00 0.000000e+00
4.398734e+00 0.000000e+00 0.000000e+00
4.430380e+00 0.000000e+00 0.000000e+00
4.462025e+00 0.000000e+00 0.000000e+00
4.493671e+00 0.000000e+00 0.000000e+00
4.525316e+00 0.000000e+00 0.000000e+00
4.556962e+00 0.000000e+00 0.000000e+00
4.588608e+00 0.000000e+00 0.000000e+00
4.620253e+00 0.000000e+00 0.000000e+00
4.651899e+00 0.000000e+00 0.000000e+00
4.683544e+00 0.000000e+00 0.000000e+00
4.715190e+00 0.000000e+00 0.000000e+00
4.746835e+00 0.000000e+00 0.000000e+00
4.778481e+00 0.000000e+00 0.000000e+00
4.810127e+00 0.000000e+00 0.000000e+00
4.841772e+00 0.000000e+00 0.000000e+00
4.873418e+00 0.000000e+00 0.000000e+00
4.905063e+00 0.000000e+00 0.000000e+00
4.936709e+00 0.000000e+00 0.000000e+00
4.968354e+00 0.000000e+00 0.000000e+00
5.000000e+00 0.000000e+00 0.000000e+00
0.000000e+00 3.333333e-02 0.000000e+00
3.164557e-02 3.333333e-02 0.000000e+00
6.329114e-02 3.333333e-02 0.000000e+00
9.493671e-02 3.333333e-02 0.000000e+00
1.265823e-01 3.333333e-02 0.000000e+00
1.582278e-01 3.333333e-02 0.000000e+00
1.898734e-01 3.333333e-02 0.000000e+00
2.215190e-01 3.333333e-02 0.000000e+00
2.531646e-01 3.333333e-02 0.000000e+00
2.848101e-01 3.333333e-02 0.000000e+00
3.164557e-01 3.333333e-02 0.000000e+00
3.481013e-01 3.333333e-02 0.000000e+00
3.797468e-01 3.333333e-02 0.000000e+00
4.113924e-01 3.333333e-02 0.000000e+00
4.430380e-01 3.333333e-02 0.000000e+00
4.746835e-01 3.333333e-02 0.000000e+00
5.063291e-01 3.333333e-02 0.000000e+00
5.379747e-01 3.333333e-02 0.000000e+00
5.696203e-01 3.333333e-02 0.000000e+00
6.012658e-01 3.333333e-02 0.000000e+00
6.329114e-01 3.333333e-02 0.000000e+00
6.645570e-01 3.333333e-02 0.000000e+00
6.962025e-01 3.333333e-02 0.000000e+00
7.278481e-01 3.333333e-02 0.000000e+00
7.594937e-01 3.333333e-02 0.000000e+00
7.911392e-01 3.333333e-02 0.000000e+00
8.227848e-01 3.333333e-02 0.000000e+00
8.544304e-01 3.333333e-02 0.000000e+00
8.860759e-01 3.333333e-02 0.000000e+00
9.177215e-01 3.333333e-02 0.000000e+00
9.493671e-01 3.333333e-02 0.000000e+00
9.810127e-01 3.333333e-02 0.000000e+00
1.012658e+00 3.333333e-02 0.000000e+00
1.044304e+00 3.333333e-02 0.000000e+00
1.075949e+00 3.333333e-02 0.000000e+00
1.107595e+00 3.333333e-02 0.000000e+00
1.139241e+00 3.333333e-02 0.000000e+00
1.170886e+00 3.333333e-02 0.000000e+00
1.202532e+00 3.333333e-02 0.000000e+00
1.234177e+00 3.333333e-02 0.000000e+00
1.265823e+00 3.333333e-02 0.000000e+00
1.297468e+00 3.333333e-02 0.000000e+00
1.329114e+00 3.333333e-02 0.000000e+00
1.360759e+00 3.333333e-02 0.000000e+00
1.392405e+00 3.333333e-02 0.000000e+00
1.424051e+00 3.333333e-02 0.000000e+00
1.455696e+00 3.333333e-02 0.000000e+00
1.487342e+00 3.333333e-02 0.000000e+00
1.518987e+00 3.333333e-02 0.000000e+00
1.550633e+00 3.333333e-02 0.000000e+00
1.582278e+00 3.333333e-02 0.000000e+00
1.613924e+00 3.333333e-02 0.000000e+00
1.645570e+00 3.333333e-02 0.000000e+00
1.677215e+00 3.333333e-02 0.000000e+00
1.708861e+00 3.333333e-02 0.000000e+00
1.740506e+00 3.333333e-02 0.000000e+00
1.772152e+00 3.333333e-02 0.000000e+00
1.803797e+00 3.333333e-02 0.000000e+00
1.835443e+00 3.333333e-02 0.000000e+00
1.867089e+00 3.333333e-02 0.000000e+00
1.898734e+00 3.333333e-02 0.000000e+00
1.930380e+00 3.333333e-02 0.000000e+00
1.962025e+00 3.333333e-02 0.000000e+00
1.993671e+00 3.333333e-02 0.000000e+00
2.025316e+00 3.333333e-02 0.000000e+00
2.056962e+00 3.333333e-02 0.000000e+00
2.088608e+00 3.333333e-02 0.000000e+00
2.120253e+00 3.333333e-02 0.000000e+00
2.151899e+00 3.333333e-02 0.000000e+00
2.183544e+00 3.333333e-02 0.000000e+00
2.215190e+00 3.333333e-02 0.000000e+00
2.246835e+00 3.333333e-02 0.000000e+00
2.278481e+00 3.333333e-02 0.000000e+00
2.310127e+00 3.333333e-02 0.000000e+00
2.341772e+00 3.333333e-02 0.000000e+00
2.373418e+00 3.333333e-02 0.000000e+00
2.405063e+00 3.333333e-02 0.000000e+00
2.436709e+00 3.333333e-02 0.000000e+00
2.468354e+00 3.333333e-02 0.000000e+00
2.500000e+00 3.333333e-02 0.000000e+00
2.531646e+00 3.333333e-02 0.000000e+00
2.563291e+00 3.333333e-02 0.000000e+00
2.594937e+00 3.333333e-02 0.000000e+00
2.626582e+00 3.333333e-02 0.000000e+00
2.658228e+00 3.333333e-02 0.000000e+00
2.689873e+00 3.333333e-02 0.000000e+00
2.721519e+00 3.333333e-02 0.000000e+00
2.753165e+00 3.333333e-02 0.000000e+00
2.784810e+00 3.333333e-02 0.000000e+00
2.816456e+00 3.333333e-02 0.000000e+00
2.848101e+00 3.333333e-02 0.000000e+00
2.879747e+00 3.333333e-02 0.000000e+00
[...]
<PointData>
<DataArray Name="Velocity" type="Float64" format="ascii" NumberOfComponents="3">
0.000000e+00 0.000000e+00 0
0.000000e+00 0.000000e+00 0
0.000000e+00 0.000000e+00 0
0.000000e+00 0.000000e+00 0
0.000000e+00 0.000000e+00 0
0.000000e+00 0.000000e+00 0
0.000000e+00 0.000000e+00 0
0.000000e+00 0.000000e+00 0
0.000000e+00 0.000000e+00 0
0.000000e+00 0.000000e+00 0
0.000000e+00 0.000000e+00 0
0.000000e+00 0.000000e+00 0
0.000000e+00 0.000000e+00 0
0.000000e+00 0.000000e+00 0
0.000000e+00 0.000000e+00 0
0.000000e+00 0.000000e+00 0
0.000000e+00 0.000000e+00 0
0.000000e+00 0.000000e+00 0
0.000000e+00 0.000000e+00 0
9.885592e-18 0.000000e+00 0
0.000000e+00 0.000000e+00 0
0.000000e+00 0.000000e+00 0
0.000000e+00 0.000000e+00 0
-2.816917e-18 0.000000e+00 0
0.000000e+00 0.000000e+00 0
0.000000e+00 0.000000e+00 0
0.000000e+00 0.000000e+00 0
-2.253998e-17 0.000000e+00 0
0.000000e+00 0.000000e+00 0
0.000000e+00 0.000000e+00 0
0.000000e+00 0.000000e+00 0
8.728059e-18 0.000000e+00 0
0.000000e+00 0.000000e+00 0
0.000000e+00 0.000000e+00 0
0.000000e+00 0.000000e+00 0
0.000000e+00 0.000000e+00 0
0.000000e+00 0.000000e+00 0
0.000000e+00 0.000000e+00 0
8.990321e-18 0.000000e+00 0
0.000000e+00 0.000000e+00 0
0.000000e+00 0.000000e+00 0
0.000000e+00 0.000000e+00 0
0.000000e+00 0.000000e+00 0
0.000000e+00 0.000000e+00 0
0.000000e+00 0.000000e+00 0
0.000000e+00 0.000000e+00 0
1.319715e-18 0.000000e+00 0
0.000000e+00 0.000000e+00 0
0.000000e+00 0.000000e+00 0
0.000000e+00 0.000000e+00 0
0.000000e+00 0.000000e+00 0
0.000000e+00 0.000000e+00 0
0.000000e+00 0.000000e+00 0
0.000000e+00 0.000000e+00 0
5.996935e-18 0.000000e+00 0
0.000000e+00 0.000000e+00 0
0.000000e+00 0.000000e+00 0
0.000000e+00 0.000000e+00 0
0.000000e+00 0.000000e+00 0
0.000000e+00 0.000000e+00 0
0.000000e+00 0.000000e+00 0
0.000000e+00 0.000000e+00 0
-1.254543e-17 0.000000e+00 0
0.000000e+00 0.000000e+00 0
0.000000e+00 0.000000e+00 0
0.000000e+00 0.000000e+00 0
0.000000e+00 0.000000e+00 0
0.000000e+00 0.000000e+00 0
0.000000e+00 0.000000e+00 0
0.000000e+00 0.000000e+00 0
0.000000e+00 0.000000e+00 0
0.000000e+00 0.000000e+00 0
0.000000e+00 0.000000e+00 0
0.000000e+00 0.000000e+00 0
0.000000e+00 0.000000e+00 0
0.000000e+00 0.000000e+00 0
0.000000e+00 0.000000e+00 0
0.000000e+00 0.000000e+00 0
0.000000e+00 0.000000e+00 0
0.000000e+00 0.000000e+00 0
0.000000e+00 0.000000e+00 0
0.000000e+00 0.000000e+00 0
0.000000e+00 0.000000e+00 0
0.000000e+00 0.000000e+00 0
0.000000e+00 0.000000e+00 0
0.000000e+00 0.000000e+00 0
0.000000e+00 0.000000e+00 0
0.000000e+00 0.000000e+00 0
0.000000e+00 0.000000e+00 0
0.000000e+00 0.000000e+00 0
0.000000e+00 0.000000e+00 0
0.000000e+00 0.000000e+00 0
0.000000e+00 0.000000e+00 0
0.000000e+00 0.000000e+00 0
0.000000e+00 0.000000e+00 0
0.000000e+00 0.000000e+00 0
0.000000e+00 0.000000e+00 0
0.000000e+00 0.000000e+00 0
0.000000e+00 0.000000e+00 0
0.000000e+00 0.000000e+00 0
0.000000e+00 0.000000e+00 0
0.000000e+00 0.000000e+00 0
0.000000e+00 0.000000e+00 0
0.000000e+00 0.000000e+00 0
0.000000e+00 0.000000e+00 0
0.000000e+00 0.000000e+00 0
0.000000e+00 0.000000e+00 0
0.000000e+00 0.000000e+00 0
0.000000e+00 0.000000e+00 0
0.000000e+00 0.000000e+00 0
0.000000e+00 0.000000e+00 0
0.000000e+00 0.000000e+00 0
0.000000e+00 0.000000e+00 0
0.000000e+00 0.000000e+00 0
0.000000e+00 0.000000e+00 0
0.000000e+00 0.000000e+00 0
0.000000e+00 0.000000e+00 0
0.000000e+00 0.000000e+00 0
0.000000e+00 0.000000e+00 0
0.000000e+00 0.000000e+00 0
0.000000e+00 0.000000e+00 0
0.000000e+00 0.000000e+00 0
0.000000e+00 0.000000e+00 0
0.000000e+00 0.000000e+00 0
0.000000e+00 0.000000e+00 0
0.000000e+00 0.000000e+00 0
0.000000e+00 0.000000e+00 0
0.000000e+00 0.000000e+00 0
0.000000e+00 0.000000e+00 0
0.000000e+00 0.000000e+00 0
0.000000e+00 0.000000e+00 0
0.000000e+00 0.000000e+00 0
0.000000e+00 0.000000e+00 0
0.000000e+00 0.000000e+00 0
0.000000e+00 0.000000e+00 0
0.000000e+00 0.000000e+00 0
0.000000e+00 0.000000e+00 0
0.000000e+00 0.000000e+00 0
0.000000e+00 0.000000e+00 0
0.000000e+00 0.000000e+00 0
0.000000e+00 0.000000e+00 0
0.000000e+00 0.000000e+00 0
0.000000e+00 0.000000e+00 0
0.000000e+00 0.000000e+00 0
0.000000e+00 0.000000e+00 0
0.000000e+00 0.000000e+00 0
0.000000e+00 0.000000e+00 0
0.000000e+00 0.000000e+00 0
0.000000e+00 0.000000e+00 0
0.000000e+00 0.000000e+00 0
0.000000e+00 0.000000e+00 0
0.000000e+00 0.000000e+00 0
0.000000e+00 0.000000e+00 0
0.000000e+00 0.000000e+00 0
0.000000e+00 0.000000e+00 0
0.000000e+00 0.000000e+00 0
0.000000e+00 0.000000e+00 0
0.000000e+00 0.000000e+00 0
0.000000e+00 0.000000e+00 0
9.473018e-01 -1.431868e-04 0
9.473018e-01 -1.536072e-04 0
9.474333e-01 -1.497793e-04 0
9.475399e-01 -1.052046e-04 0
9.476009e-01 -3.614195e-05 0
9.475970e-01 4.854581e-05 0
9.475082e-01 1.516474e-04 0
9.473114e-01 2.795494e-04 0
9.469804e-01 4.368478e-04 0
9.464850e-01 6.280944e-04 0
9.457905e-01 8.583057e-04 0
9.448571e-01 1.133164e-03 0
9.436395e-01 1.459149e-03 0
9.420854e-01 1.843682e-03 0
9.401351e-01 2.295302e-03 0
9.377203e-01 2.823903e-03 0
9.347621e-01 3.441042e-03 0
9.311701e-01 4.160343e-03 0
9.268395e-01 4.998000e-03 0
9.216487e-01 5.973385e-03 0
9.154558e-01 7.109749e-03 0
9.080943e-01 8.434957e-03 0
8.993686e-01 9.982088e-03 0
8.890477e-01 1.178954e-02 0
8.768604e-01 1.389991e-02 0
8.624903e-01 1.635598e-02 0
8.455768e-01 1.919107e-02 0
8.257268e-01 2.240836e-02 0
8.025520e-01 2.594152e-02 0
7.757558e-01 2.958805e-02 0
7.453070e-01 3.291808e-02 0
7.117376e-01 3.520395e-02 0
6.765321e-01 3.551474e-02 0
6.423180e-01 3.320284e-02 0
6.121032e-01 2.862005e-02 0
5.874726e-01 2.292657e-02 0
5.685880e-01 1.721311e-02 0
5.548235e-01 1.211560e-02 0
5.452969e-01 7.842767e-03 0
5.391672e-01 4.303966e-03 0
5.357752e-01 7.873963e-04 0
5.345582e-01 -2.761704e-03 0
5.352000e-01 -5.620383e-03 0
5.372736e-01 -7.645131e-03 0
5.403685e-01 -8.924920e-03 0
5.441264e-01 -9.593203e-03 0
5.482522e-01 -9.791986e-03 0
5.525134e-01 -9.649736e-03 0
5.567337e-01 -9.272060e-03 0
5.607837e-01 -8.740496e-03 0
5.645712e-01 -8.115283e-03 0
5.680331e-01 -7.439464e-03 0
5.711277e-01 -6.743036e-03 0
5.738295e-01 -6.046651e-03 0
5.761251e-01 -5.364401e-03 0
5.780107e-01 -4.705376e-03 0
5.794896e-01 -4.073963e-03 0
5.805679e-01 -3.470809e-03 0
5.812549e-01 -2.895508e-03 0
5.815755e-01 -2.337785e-03 0
5.815764e-01 -1.793052e-03 0
5.813048e-01 -1.284047e-03 0
5.807894e-01 -8.316871e-04 0
5.800554e-01 -4.435544e-04 0
5.791268e-01 -1.346229e-04 0
5.780250e-01 9.008737e-05 0
5.767688e-01 2.590829e-04 0
5.753758e-01 4.016119e-04 0
5.738607e-01 5.271729e-04 0
5.722355e-01 6.396203e-04 0
5.705109e-01 7.409276e-04 0
5.686965e-01 8.323238e-04 0
5.668009e-01 9.146922e-04 0
5.648323e-01 9.887323e-04 0
5.627981e-01 1.055037e-03 0
5.607052e-01 1.114132e-03 0
5.585602e-01 1.166507e-03 0
5.563693e-01 1.212623e-03 0
5.541382e-01 1.252931e-03 0
5.518723e-01 1.287866e-03 0
5.495769e-01 1.317852e-03 0
5.472568e-01 1.343282e-03 0
5.449168e-01 1.364511e-03 0
5.425614e-01 1.381839e-03 0
5.401950e-01 1.395495e-03 0
5.378222e-01 1.405631e-03 0
5.354473e-01 1.412316e-03 0
5.330748e-01 1.415542e-03 0
5.307094e-01 1.415233e-03 0
5.283558e-01 1.411257e-03 0
5.260190e-01 1.403437e-03 0
5.237043e-01 1.391563e-03 0
5.214171e-01 1.375393e-03 0
5.191629e-01 1.354649e-03 0
5.169478e-01 1.329003e-03 0
5.147779e-01 1.298075e-03 0
5.126594e-01 1.261423e-03 0
5.105992e-01 1.218556e-03 0
5.086039e-01 1.168965e-03 0
5.066807e-01 1.112178e-03 0
5.048364e-01 1.047869e-03 0
5.030783e-01 9.760505e-04 0
5.014134e-01 8.971935e-04 0
4.998490e-01 8.114268e-04 0
4.983935e-01 7.150609e-04 0
4.970589e-01 5.935066e-04 0
4.958607e-01 4.169140e-04 0
4.948124e-01 1.627044e-04 0
4.939106e-01 -1.169564e-04 0
4.931431e-01 -3.374605e-04 0
4.924966e-01 -4.768113e-04 0
4.919584e-01 -5.543174e-04 0
4.915201e-01 -5.939271e-04 0
4.911823e-01 -6.162270e-04 0
4.909649e-01 -6.402041e-04 0
4.909163e-01 -6.935220e-04 0
4.910721e-01 -7.937309e-04 0
4.914340e-01 -9.245441e-04 0
4.919878e-01 -1.057546e-03 0
4.927103e-01 -1.173009e-03 0
4.935739e-01 -1.260640e-03 0
4.945495e-01 -1.316516e-03 0
4.956081e-01 -1.341042e-03 0
4.967211e-01 -1.339108e-03 0
4.978669e-01 -1.318373e-03 0
4.990316e-01 -1.284684e-03 0
5.002043e-01 -1.240771e-03 0
5.013750e-01 -1.187850e-03 0
5.025346e-01 -1.126637e-03 0
5.036746e-01 -1.057747e-03 0
5.047872e-01 -9.818331e-04 0
5.058657e-01 -8.996371e-04 0
5.069038e-01 -8.120518e-04 0
5.078962e-01 -7.202395e-04 0
5.088380e-01 -6.258716e-04 0
5.097255e-01 -5.315144e-04 0
5.105554e-01 -4.410873e-04 0
5.113260e-01 -3.601368e-04 0
5.120372e-01 -2.955026e-04 0
5.126911e-01 -2.540083e-04 0
5.132924e-01 -2.403253e-04 0
5.138479e-01 -2.548838e-04 0
5.143653e-01 -2.927758e-04 0
5.148521e-01 -3.443457e-04 0
5.153139e-01 -3.974945e-04 0
5.157530e-01 -4.406985e-04 0
5.161686e-01 -4.655018e-04 0
5.165572e-01 -4.677123e-04 0
5.169128e-01 -4.472875e-04 0
5.172278e-01 -4.075076e-04 0
5.174939e-01 -3.540305e-04 0
5.177035e-01 -2.941432e-04 0
5.178519e-01 -2.363732e-04 0
5.179395e-01 -1.903476e-04 0
5.179752e-01 -1.662777e-04 0
5.179801e-01 -1.731848e-04 0
5.179950e-01 -2.016882e-04 0
5.180774e-01 -3.479899e-04 0
5.180774e-01 -4.779579e-04 0
1.347049e+00 -2.822255e-04 0
1.347049e+00 -2.796017e-04 0
1.347163e+00 -2.508599e-04 0
1.347256e+00 -1.765348e-04 0
1.347321e+00 -6.011899e-05 0
1.347337e+00 9.762578e-05 0
1.347283e+00 3.008414e-04 0
1.347139e+00 5.559210e-04 0
1.346882e+00 8.705380e-04 0
1.346483e+00 1.253465e-03 0
1.345915e+00 1.714719e-03 0
1.345142e+00 2.265741e-03 0
1.344124e+00 2.919602e-03 0
1.342817e+00 3.691268e-03 0
1.341168e+00 4.597953e-03 0
1.339118e+00 5.659600e-03 0
1.336598e+00 6.899507e-03 0
1.333531e+00 8.345151e-03 0
1.329825e+00 1.002922e-02 0
1.325375e+00 1.199089e-02 0
1.320058e+00 1.427731e-02 0
1.313730e+00 1.694522e-02 0
1.306219e+00 2.006244e-02 0
1.297323e+00 2.370862e-02 0
1.286797e+00 2.797382e-02 0
1.274349e+00 3.295208e-02 0
1.259627e+00 3.872432e-02 0
1.242213e+00 4.531955e-02 0
1.221627e+00 5.263615e-02 0
1.197363e+00 6.029806e-02 0
1.169024e+00 6.743252e-02 0
1.136667e+00 7.244298e-02 0
1.101554e+00 7.312200e-02 0
1.067152e+00 6.786512e-02 0
1.038273e+00 5.777058e-02 0
1.016179e+00 4.583610e-02 0
1.000068e+00 3.439054e-02 0
9.886168e-01 2.453338e-02 0
9.806350e-01 1.649142e-02 0
9.751985e-01 1.002969e-02 0
9.715806e-01 4.854934e-03 0
9.687100e-01 6.060172e-04 0
9.661892e-01 -2.860056e-03 0
9.639679e-01 -5.444012e-03 0
9.620156e-01 -7.218169e-03 0
9.603078e-01 -8.303934e-03 0
9.588134e-01 -8.834103e-03 0
9.574925e-01 -8.933729e-03 0
9.562999e-01 -8.711180e-03 0
9.551885e-01 -8.255272e-03 0
9.541133e-01 -7.635834e-03 0
9.530324e-01 -6.905995e-03 0
9.519079e-01 -6.105328e-03 0
9.507060e-01 -5.263631e-03 0
9.493981e-01 -4.403957e-03 0
9.479622e-01 -3.543756e-03 0
9.463846e-01 -2.693396e-03 0
9.446714e-01 -1.859181e-03 0
9.428425e-01 -1.061079e-03 0
9.409071e-01 -3.384091e-04 0
9.388792e-01 2.854343e-04 0
9.367685e-01 8.291802e-04 0
9.345739e-01 1.316259e-03 0
9.322918e-01 1.751569e-03 0
9.299143e-01 2.138971e-03 0
9.274216e-01 2.484008e-03 0
9.247979e-01 2.790636e-03 0
9.220472e-01 3.063447e-03 0
9.191778e-01 3.308105e-03 0
9.161988e-01 3.528673e-03 0
9.131188e-01 3.727963e-03 0
9.099460e-01 3.908025e-03 0
9.066883e-01 4.070452e-03 0
9.033528e-01 4.216548e-03 0
8.999465e-01 4.347429e-03 0
8.964761e-01 4.464075e-03 0
8.929478e-01 4.567369e-03 0
8.893678e-01 4.658109e-03 0
8.857420e-01 4.737016e-03 0
8.820760e-01 4.804740e-03 0
8.783755e-01 4.861848e-03 0
8.746461e-01 4.908819e-03 0
8.708934e-01 4.946031e-03 0
8.671227e-01 4.973748e-03 0
8.633399e-01 4.992117e-03 0
8.595504e-01 5.001161e-03 0
8.557601e-01 5.000784e-03 0
8.519747e-01 4.990784e-03 0
8.482002e-01 4.970862e-03 0
8.444426e-01 4.940645e-03 0
8.407081e-01 4.899706e-03 0
8.370030e-01 4.847580e-03 0
8.333338e-01 4.783778e-03 0
8.297068e-01 4.707798e-03 0
8.261287e-01 4.619129e-03 0
8.226061e-01 4.517261e-03 0
8.191455e-01 4.401697e-03 0
8.157534e-01 4.271981e-03 0
8.124362e-01 4.127723e-03 0
8.091999e-01 3.968656e-03 0
8.060506e-01 3.794671e-03 0
8.029938e-01 3.605789e-03 0
8.000356e-01 3.401794e-03 0
7.971822e-01 3.181124e-03 0
7.944406e-01 2.939091e-03 0
7.918153e-01 2.668102e-03 0
7.893000e-01 2.366541e-03 0
7.868664e-01 2.054388e-03 0
7.844750e-01 1.758493e-03 0
7.821341e-01 1.489601e-03 0
7.798775e-01 1.248101e-03 0
7.777338e-01 1.028727e-03 0
7.757233e-01 8.177034e-04 0
7.738624e-01 5.850526e-04 0
7.721638e-01 2.802998e-04 0
7.706267e-01 -1.127638e-04 0
7.692291e-01 -5.451203e-04 0
7.679485e-01 -9.644090e-04 0
7.667718e-01 -1.344176e-03 0
7.656935e-01 -1.670469e-03 0
7.647115e-01 -1.937190e-03 0
7.638258e-01 -2.142594e-03 0
7.630390e-01 -2.287310e-03 0
7.623604e-01 -2.379146e-03 0
7.617970e-01 -2.433635e-03 0
7.613446e-01 -2.462059e-03 0
7.609961e-01 -2.468356e-03 0
7.607440e-01 -2.454513e-03 0
7.605815e-01 -2.422122e-03 0
7.605026e-01 -2.372749e-03 0
7.605021e-01 -2.307993e-03 0
7.605753e-01 -2.229472e-03 0
7.607180e-01 -2.138766e-03 0
7.609265e-01 -2.037395e-03 0
7.611968e-01 -1.926889e-03 0
7.615239e-01 -1.808989e-03 0
7.619018e-01 -1.685945e-03 0
7.623214e-01 -1.560864e-03 0
7.627710e-01 -1.437956e-03 0
7.632357e-01 -1.322251e-03 0
7.636992e-01 -1.218512e-03 0
7.641455e-01 -1.130115e-03 0
7.645621e-01 -1.057876e-03 0
7.649410e-01 -9.992491e-04 0
7.652796e-01 -9.489457e-04 0
7.655794e-01 -9.004060e-04 0
7.658453e-01 -8.472210e-04 0
7.660840e-01 -7.839582e-04 0
7.663022e-01 -7.064026e-04 0
7.665040e-01 -6.120447e-04 0
7.666905e-01 -5.010395e-04 0
7.668602e-01 -3.771454e-04 0
7.670104e-01 -2.487020e-04 0
7.671398e-01 -1.299206e-04 0
7.672519e-01 -4.274968e-05 0
7.673607e-01 -2.086639e-05 0
7.675035e-01 -1.024724e-04 0
7.677509e-01 -5.887707e-04 0
7.677509e-01 -1.003966e-03 0
1.511766e+00 -4.235528e-04 0
1.511766e+00 -4.133413e-04 0
1.511894e+00 -3.679701e-04 0
1.512006e+00 -2.714294e-04 0
1.512098e+00 -1.208576e-04 0
1.512157e+00 8.754363e-05 0
1.512171e+00 3.594743e-04 0
1.512124e+00 7.029474e-04 0
1.512001e+00 1.127935e-03 0
1.511784e+00 1.646246e-03 0
1.511449e+00 2.271552e-03 0
1.510974e+00 3.019524e-03 0
1.510329e+00 3.908058e-03 0
1.509483e+00 4.957598e-03 0
1.508398e+00 6.191604e-03 0
1.507033e+00 7.637184e-03 0
1.505340e+00 9.325954e-03 0
1.503264e+00 1.129517e-02 0
1.500744e+00 1.358918e-02 0
1.497706e+00 1.626127e-02 0
1.494069e+00 1.937596e-02 0
1.489736e+00 2.301166e-02 0
1.484591e+00 2.726367e-02 0
1.478495e+00 3.224716e-02 0
1.471274e+00 3.809886e-02 0
1.462709e+00 4.497527e-02 0
1.452506e+00 5.304117e-02 0
1.440258e+00 6.243530e-02 0
1.425379e+00 7.318328e-02 0
1.407005e+00 8.499655e-02 0
1.383925e+00 9.685186e-02 0
1.354778e+00 1.062721e-01 0
1.319347e+00 1.087365e-01 0
1.282706e+00 9.985909e-02 0
1.256517e+00 8.231167e-02 0
1.240153e+00 6.316932e-02 0
1.230259e+00 4.624585e-02 0
1.224189e+00 3.258493e-02 0
1.220334e+00 2.197672e-02 0
1.217769e+00 1.384141e-02 0
1.215905e+00 7.622045e-03 0
1.214396e+00 2.917260e-03 0
1.212858e+00 -6.253581e-04 0
1.211205e+00 -3.248842e-03 0
1.209459e+00 -5.069453e-03 0
1.207659e+00 -6.220112e-03 0
1.205845e+00 -6.826518e-03 0
1.204042e+00 -7.002133e-03 0
1.202263e+00 -6.845110e-03 0
1.200512e+00 -6.437181e-03 0
1.198783e+00 -5.843996e-03 0
1.197068e+00 -5.116385e-03 0
1.195351e+00 -4.292544e-03 0
1.193614e+00 -3.402881e-03 0
1.191837e+00 -2.474163e-03 0
1.190017e+00 -1.531047e-03 0
1.188160e+00 -6.074814e-04 0
1.186266e+00 2.603516e-04 0
1.184332e+00 1.069616e-03 0
1.182348e+00 1.836951e-03 0
1.180285e+00 2.566413e-03 0
1.178113e+00 3.250923e-03 0
1.175828e+00 3.883796e-03 0
1.173425e+00 4.464676e-03 0
1.170905e+00 4.995482e-03 0
1.168268e+00 5.479493e-03 0
1.165518e+00 5.920220e-03 0
1.162657e+00 6.321554e-03 0
1.159690e+00 6.687608e-03 0
1.156621e+00 7.021899e-03 0
1.153456e+00 7.327245e-03 0
1.150202e+00 7.605891e-03 0
1.146863e+00 7.859670e-03 0
1.143445e+00 8.090118e-03 0
1.139954e+00 8.298563e-03 0
1.136395e+00 8.486170e-03 0
1.132773e+00 8.653974e-03 0
1.129093e+00 8.802898e-03 0
1.125361e+00 8.933760e-03 0
1.121582e+00 9.047274e-03 0
1.117761e+00 9.144046e-03 0
1.113903e+00 9.224569e-03 0
1.110013e+00 9.289219e-03 0
1.106096e+00 9.338244e-03 0
1.102159e+00 9.371767e-03 0
1.098205e+00 9.389786e-03 0
1.094241e+00 9.392181e-03 0
1.090271e+00 9.378728e-03 0
1.086302e+00 9.349115e-03 0
1.082337e+00 9.302959e-03 0
1.078384e+00 9.239834e-03 0
1.074446e+00 9.159284e-03 0
1.070528e+00 9.060848e-03 0
1.066637e+00 8.944074e-03 0
1.062777e+00 8.808534e-03 0
1.058952e+00 8.653840e-03 0
1.055168e+00 8.479667e-03 0
1.051430e+00 8.285773e-03 0
1.047740e+00 8.072025e-03 0
1.044105e+00 7.838411e-03 0
1.040526e+00 7.585022e-03 0
1.037009e+00 7.311930e-03 0
1.033557e+00 7.018887e-03 0
1.030172e+00 6.704903e-03 0
1.026858e+00 6.368277e-03 0
1.023613e+00 6.008401e-03 0
1.020429e+00 5.629886e-03 0
1.017299e+00 5.245088e-03 0
1.014228e+00 4.867761e-03 0
1.011225e+00 4.505296e-03 0
1.008302e+00 4.158312e-03 0
1.005468e+00 3.821547e-03 0
1.002730e+00 3.484037e-03 0
1.000091e+00 3.133245e-03 0
9.975337e-01 2.768148e-03 0
9.950119e-01 2.397737e-03 0
9.924897e-01 2.027375e-03 0
9.899623e-01 1.663841e-03 0
9.874379e-01 1.317751e-03 0
9.849308e-01 9.972320e-04 0
9.824572e-01 7.067388e-04 0
9.800342e-01 4.452696e-04 0
9.776787e-01 2.025041e-04 0
9.754063e-01 -3.086952e-05 0
9.732256e-01 -2.483517e-04 0
9.711400e-01 -4.409822e-04 0
9.691515e-01 -6.080638e-04 0
9.672613e-01 -7.511678e-04 0
9.654706e-01 -8.724391e-04 0
9.637805e-01 -9.741072e-04 0
9.621923e-01 -1.058314e-03 0
9.607070e-01 -1.127062e-03 0
9.593257e-01 -1.182055e-03 0
9.580494e-01 -1.224528e-03 0
9.568789e-01 -1.255175e-03 0
9.558151e-01 -1.274143e-03 0
9.548584e-01 -1.281140e-03 0
9.540094e-01 -1.275774e-03 0
9.532663e-01 -1.258515e-03 0
9.526218e-01 -1.231714e-03 0
9.520587e-01 -1.198739e-03 0
9.515575e-01 -1.163813e-03 0
9.511042e-01 -1.130730e-03 0
9.506889e-01 -1.100143e-03 0
9.503050e-01 -1.069882e-03 0
9.499489e-01 -1.036576e-03 0
9.496201e-01 -9.970973e-04 0
9.493223e-01 -9.490288e-04 0
9.490636e-01 -8.896947e-04 0
9.488523e-01 -8.165213e-04 0
9.486962e-01 -7.291764e-04 0
9.486029e-01 -6.311151e-04 0
9.485795e-01 -5.309716e-04 0
9.486335e-01 -4.446637e-04 0
9.487729e-01 -3.989206e-04 0
9.490095e-01 -4.382507e-04 0
9.493666e-01 -6.126734e-04 0
9.498804e-01 -1.310527e-03 0
9.498804e-01 -1.881864e-03 0
1.591301e+00 -5.727622e-04 0
1.591301e+00 -5.587602e-04 0
1.591443e+00 -5.035013e-04 0
1.591575e+00 -3.917643e-04 0
1.591694e+00 -2.187657e-04 0
1.591793e+00 2.101105e-05 0
1.591864e+00 3.352194e-04 0
1.591899e+00 7.340900e-04 0
1.591886e+00 1.229369e-03 0
1.591813e+00 1.835106e-03 0
1.591663e+00 2.567603e-03 0
1.591421e+00 3.445502e-03 0
1.591066e+00 4.489986e-03 0
1.590576e+00 5.725111e-03 0
1.589924e+00 7.178286e-03 0
1.589082e+00 8.880967e-03 0
1.588017e+00 1.086961e-02 0
1.586695e+00 1.318695e-02 0
1.585076e+00 1.588373e-02 0
1.583116e+00 1.902088e-02 0
1.580768e+00 2.267244e-02 0
1.577975e+00 2.692922e-02 0
1.574675e+00 3.190362e-02 0
1.570791e+00 3.773574e-02 0
1.566227e+00 4.460124e-02 0
1.560851e+00 5.272111e-02 0
1.554462e+00 6.237235e-02 0
1.546733e+00 7.389380e-02 0
1.537070e+00 8.766356e-02 0
1.524338e+00 1.039622e-01 0
1.506307e+00 1.224443e-01 0
1.478801e+00 1.404659e-01 0
1.435736e+00 1.490384e-01 0
1.382675e+00 1.340454e-01 0
1.358465e+00 1.025928e-01 0
1.350314e+00 7.349528e-02 0
1.348657e+00 5.120636e-02 0
1.349154e+00 3.498767e-02 0
1.350114e+00 2.325374e-02 0
1.350935e+00 1.469450e-02 0
1.351415e+00 8.407557e-03 0
1.351498e+00 3.816197e-03 0
1.351161e+00 5.008613e-04 0
1.350421e+00 -1.863833e-03 0
1.349363e+00 -3.482745e-03 0
1.348075e+00 -4.497100e-03 0
1.346632e+00 -5.023501e-03 0
1.345094e+00 -5.160892e-03 0
1.343503e+00 -4.993125e-03 0
1.341885e+00 -4.590049e-03 0
1.340258e+00 -4.008139e-03 0
1.338632e+00 -3.290632e-03 0
1.337008e+00 -2.466918e-03 0
1.335370e+00 -1.561766e-03 0
1.333719e+00 -6.154956e-04 0
1.332055e+00 3.289313e-04 0
1.330374e+00 1.257999e-03 0
1.328661e+00 2.173428e-03 0
1.326888e+00 3.065909e-03 0
1.325048e+00 3.924944e-03 0
1.323137e+00 4.746026e-03 0
1.321156e+00 5.524029e-03 0
1.319099e+00 6.254795e-03 0
1.316963e+00 6.936857e-03 0
1.314745e+00 7.570682e-03 0
1.312443e+00 8.157997e-03 0
1.310058e+00 8.701201e-03 0