<?xml version="1.0"?>
<VTKFile type="StructuredGrid">
<StructuredGrid WholeExtent="0 158 0 30 0 0 ">
<Piece Extent="0 158 0 30 0 0 ">
<Points>
<DataArray type="Float64" format="ascii" NumberOfComponents="3">
0.000000e+00 0.000000e+00 0.000000e+00
3.164557e-02 0.000000e+00 0.000000e+00
6.329114e-02 0.000000e+00 0.000000e+00
9.493671e-02 0.000000e+00 0.000000e+00
1.265823e-01 0.000000e+00 0.000000e+00
1.582278e-01 0.000000e+00 0.000000e+00
1.898734e-01 0.000000e+00 0.000000e+00
2.215190e-01 0.000000e+00 0.000000e+00
2.531646e-01 0.000000e+00 0.000000e+00
2.848101e-01 0.000000e+00 0.000000e+00
3.164557e-01 0.000000e+00 0.000000e+00
3.481013e-01 0.000000e+00 0.000000e+00
3.797468e-01 0.000000e+00 0.000000e+00
4.113924e-01 0.000000e+00 0.000000e+00
4.430380e-01 0.000000e+00 0.000000e+00
4.746835e-01 0.000000e+00 0.000000e+00
5.063291e-01 0.000000e+00 0.000000e+00
5.379747e-01 0.000000e+00 0.000000e+00
5.696203e-01 0.000000e+00 0.000000e+00
6.012658e-01 0.000000e+00 0.000000e+00
6.329114e-01 0.000000e+00 0.000000e+00
6.645570e-01 0.000000e+00 0.000000e+00
6.962025e-01 0.000000e+00 0.000000e+00
7.278481e-01 0.000000e+00 0.000000e+00
7.594937e-01 0.000000e+00 0.000000e+00
7.911392e-01 0.000000e+00 0.000000e+00
8.227848e-01 0.000000e+00 0.000000e+00
8.544304e-01 0.000000e+00 0.000000e+00
8.860759e-01 0.000000e+00 0.000000e+00
9.177215e-01 0.000000e+00 0.000000e+00
9.493671e-01 0.000000e+00 0.000000e+00
9.810127e-01 0.000000e+00 0.000000e+00
1.012658e+00 0.000000e+00 0.000000e+00
1.044304e+00 0.000000e+00 0.000000e+00
1.075949e+00 0.000000e+00 0.000000e+00
1.107595e+00 0.000000e+00 0.000000e+00
1.139241e+00 0.000000e+00 0.000000e+00
1.170886e+00 0.000000e+00 0.000000e+00
1.202532e+00 0.000000e+00 0.000000e+00
1.234177e+00 0.000000e+00 0.000000e+00
1.265823e+00 0.000000e+00 0.000000e+00
1.297468e+00 0.000000e+00 0.000000e+00
1.329114e+00 0.000000e+00 0.000000e+00
1.360759e+00 0.000000e+00 0.000000e+00
1.392405e+00 0.000000e+00 0.000000e+00
1.424051e+00 0.000000e+00 0.000000e+00
1.455696e+00 0.000000e+00 0.000000e+00
1.487342e+00 0.000000e+00 0.000000e+00
1.518987e+00 0.000000e+00 0.000000e+00
1.550633e+00 0.000000e+00 0.000000e+00
1.582278e+00 0.000000e+00 0.000000e+00
1.613924e+00 0.000000e+00 0.000000e+00
1.645570e+00 0.000000e+00 0.000000e+00
1.677215e+00 0.000000e+00 0.000000e+00
1.708861e+00 0.000000e+00 0.000000e+00
1.740506e+00 0.000000e+00 0.000000e+00
1.772152e+00 0.000000e+00 0.000000e+00
1.803797e+00 0.000000e+00 0.000000e+00
1.835443e+00 0.000000e+00 0.000000e+00
1.867089e+00 0.000000e+00 0.000000e+00
1.898734e+00 0.000000e+00 0.000000e+00
1.930380e+00 0.000000e+00 0.000000e+00
1.962025e+00 0.000000e+00 0.000000e+00
1.993671e+00 0.000000e+00 0.000000e+00
2.025316e+00 0.000000e+00 0.000000e+00
2.056962e+00 0.000000e+00 0.000000e+00
2.088608e+00 0.000000e+00 0.000000e+00
2.120253e+00 0.000000e+00 0.000000e+00
2.151899e+00 0.000000e+00 0.000000e+00
2.183544e+00 0.000000e+00 0.000000e+00
2.215190e+00 0.000000e+00 0.000000e+00
2.246835e+00 0.000000e+00 0.000000e+00
2.278481e+00 0.000000e+00 0.000000e+00
2.310127e+00 0.000000e+00 0.000000e+00
2.341772e+00 0.000000e+00 0.000000e+00
2.373418e+00 0.000000e+00 0.000000e+00
2.405063e+00 0.000000e+00 0.000000e+00
2.436709e+00 0.000000e+00 0.000000e+00
2.468354e+00 0.000000e+00 0.000000e+00
2.500000e+00 0.000000e+00 0.000000e+00
2.531646e+00 0.000000e+00 0.000000e+00
2.563291e+00 0.000000e+00 0.000000e+00
2.594937e+00 0.000000e+00 0.000000e+00
2.626582e+00 0.000000e+00 0.000000e+00
2.658228e+00 0.000000e+00 0.000000e+00
2.689873e+00 0.000000e+00 0.000000e+00
2.721519e+00 0.000000e+00 0.000000e+00
2.753165e+00 0.000000e+00 0.000000e+00
2.784810e+00 0.000000e+00 0.000000e+00
2.816456e+00 0.000000e+00 0.000000e+00
2.848101e+00 0.000000e+00 0.000000e+00
2.879747e+00 0.000000e+00 0.000000e+00
2.911392e+00 0.000000e+00 0.000000e+00
2.943038e+00 0.000000e+00 0.000000e+00
2.974684e+00 0.000000e+00 0.000000e+00
3.006329e+00 0.000000e+00 0.000000e+00
3.037975e+00 0.000000e+00 0.000000e+00
3.069620e+00 0.000000e+00 0.000000e+00
3.101266e+00 0.000000e+00 0.000000e+00
3.132911e+00 0.000000e+00 0.000000e+00
3.164557e+00 0.000000e+00 0.000000e+00
3.196203e+00 0.000000e+00 0.000000e+00
3.227848e+00 0.000000e+00 0.000000e+00
3.259494e+00 0.000000e+00 0.000000e+00
3.291139e+00 0.000000e+00 0.000000e+00
3.322785e+00 0.000000e+00 0.000000e+00
3.354430e+00 0.000000e+00 0.000000e+00
3.386076e+00 0.000000e+00 0.000000e+00
3.417722e+00 0.000000e+00 0.000000e+00
3.449367e+00 0.000000e+00 0.000000e+00
3.481013e+00 0.000000e+00 0.000000e+00
3.512658e+00 0.000000e+00 0.000000e+00
3.544304e+00 0.000000e+00 0.000000e+00
3.575949e+00 0.000000e+00 0.000000e+00
3.607595e+00 0.000000e+00 0.000000e+00
3.639241e+00 0.000000e+00 0.000000e+00
3.670886e+00 0.000000e+00 0.000000e+00
3.702532e+00 0.000000e+00 0.000000e+00
3.734177e+00 0.000000e+00 0.000000e+00
3.765823e+00 0.000000e+00 0.000000e+00
3.797468e+00 0.000000e+00 0.000000e+00
3.829114e+00 0.000000e+00 0.000000e+00
3.860759e+00 0.000000e+00 0.000000e+00
3.892405e+00 0.000000e+00 0.000000e+00
3.924051e+00 0.000000e+00 0.000000e+00
3.955696e+00 0.000000e+00 0.000000e+00
3.987342e+00 0.000000e+00 0.000000e+00
4.018987e+00 0.000000e+00 0.000000e+00
4.050633e+00 0.000000e+00 0.000000e+00
4.082278e+00 0.000000e+00 0.000000e+00
4.113924e+00 0.000000e+00 0.000000e+00
4.145570e+00 0.000000e+00 0.000000e+00
4.177215e+00 0.000000e+00 0.000000e+00
4.208861e+00 0.000000e+00 0.000000e+00
4.240506e+00 0.000000e+00 0.000000e+00
4.272152e+00 0.000000e+00 0.000000e+00
4.303797e+00 0.000000e+00 0.000000e+00
4.335443e+00 0.000000e+00 0.000000e+00
4.367089e+00 0.000000e+00 0.000000e+00
4.398734e+00 0.000000e+00 0.000000e+00
4.430380e+00 0.000000e+00 0.000000e+00
4.462025e+00 0.000000e+00 0.000000e+00
4.493671e+00 0.000000e+00 0.000000e+00
4.525316e+00 0.000000e+00 0.000000e+00
4.556962e+00 0.000000e+00 0.000000e+00
4.588608e+00 0.000000e+00 0.000000e+00
4.620253e+00 0.000000e+00 0.000000e+00
4.651899e+00 0.000000e+00 0.000000e+00
4.683544e+00 0.000000e+00 0.000000e+00
4.715190e+00 0.000000e+00 0.000000e+00
4.746835e+00 0.000000e+00 0.000000e+00
4.778481e+00 0.000000e+00 0.000000e+00
4.810127e+00 0.000000e+00 0.000000e+00
4.841772e+00 0.000000e+00 0.000000e+00
4.873418e+00 0.000000e+00 0.000000e+00
4.905063e+00 0.000000e+00 0.000000e+00
4.936709e+00 0.000000e+00 0.000000e+00
4.968354e+00 0.000000e+00 0.000000e+00
5.000000e+00 0.000000e+00 0.000000e+00
0.000000e+00 3.333333e-02 0.000000e+00
3.164557e-02 3.333333e-02 0.000000e+00
6.329114e-02 3.333333e-02 0.000000e+00
9.493671e-02 3.333333e-02 0.000000e+00
1.265823e-01 3.333333e-02 0.000000e+00
1.582278e-01 3.333333e-02 0.000000e+00
1.898734e-01 3.333333e-02 0.000000e+00
2.215190e-01 3.333333e-02 0.000000e+00
2.531646e-01 3.333333e-02 0.000000e+00
2.848101e-01 3.333333e-02 0.000000e+00
3.164557e-01 3.333333e-02 0.000000e+00
3.481013e-01 3.333333e-02 0.000000e+00
3.797468e-01 3.333333e-02 0.000000e+00
4.113924e-01 3.333333e-02 0.000000e+00
4.430380e-01 3.333333e-02 0.000000e+00
4.746835e-01 3.333333e-02 0.000000e+00
5.063291e-01 3.333333e-02 0.000000e+00
5.379747e-01 3.333333e-02 0.000000e+00
5.696203e-01 3.333333e-02 0.000000e+00
6.012658e-01 3.333333e-02 0.000000e+00
6.329114e-01 3.333333e-02 0.000000e+00
6.645570e-01 3.333333e-02 0.000000e+00
6.962025e-01 3.333333e-02 0.000000e+00
7.278481e-01 3.333333e-02 0.000000e+00
7.594937e-01 3.333333e-02 0.000000e+00
7.911392e-01 3.333333e-02 0.000000e+00
8.227848e-01 3.333333e-02 0.000000e+00
8.544304e-01 3.333333e-02 0.000000e+00
8.860759e-01 3.333333e-02 0.000000e+00
9.177215e-01 3.333333e-02 0.000000e+00
9.493671e-01 3.333333e-02 0.000000e+00
9.810127e-01 3.333333e-02 0.000000e+00
1.012658e+00 3.333333e-02 0.000000e+00
1.044304e+00 3.333333e-02 0.000000e+00
1.075949e+00 3.333333e-02 0.000000e+00
1.107595e+00 3.333333e-02 0.000000e+00
1.139241e+00 3.333333e-02 0.000000e+00
1.170886e+00 3.333333e-02 0.000000e+00
1.202532e+00 3.333333e-02 0.000000e+00
1.234177e+00 3.333333e-02 0.000000e+00
1.265823e+00 3.333333e-02 0.000000e+00
1.297468e+00 3.333333e-02 0.000000e+00
1.329114e+00 3.333333e-02 0.000000e+00
1.360759e+00 3.333333e-02 0.000000e+00
1.392405e+00 3.333333e-02 0.000000e+00
1.424051e+00 3.333333e-02 0.000000e+00
1.455696e+00 3.333333e-02 0.000000e+00
1.487342e+00 3.333333e-02 0.000000e+00
1.518987e+00 3.333333e-02 0.000000e+00
1.550633e+00 3.333333e-02 0.000000e+00
1.582278e+00 3.333333e-02 0.000000e+00
1.613924e+00 3.333333e-02 0.000000e+00
1.645570e+00 3.333333e-02 0.000000e+00
1.677215e+00 3.333333e-02 0.000000e+00
1.708861e+00 3.333333e-02 0.000000e+00
1.740506e+00 3.333333e-02 0.000000e+00
1.772152e+00 3.333333e-02 0.000000e+00
1.803797e+00 3.333333e-02 0.000000e+00
1.835443e+00 3.333333e-02 0.000000e+00
1.867089e+00 3.333333e-02 0.000000e+00
1.898734e+00 3.333333e-02 0.000000e+00
1.930380e+00 3.333333e-02 0.000000e+00
1.962025e+00 3.333333e-02 0.000000e+00
1.993671e+00 3.333333e-02 0.000000e+00
2.025316e+00 3.333333e-02 0.000000e+00
2.056962e+00 3.333333e-02 0.000000e+00
2.088608e+00 3.333333e-02 0.000000e+00
2.120253e+00 3.333333e-02 0.000000e+00
2.151899e+00 3.333333e-02 0.000000e+00
2.183544e+00 3.333333e-02 0.000000e+00
2.215190e+00 3.333333e-02 0.000000e+00
2.246835e+00 3.333333e-02 0.000000e+00
2.278481e+00 3.333333e-02 0.000000e+00
2.310127e+00 3.333333e-02 0.000000e+00
2.341772e+00 3.333333e-02 0.000000e+00
2.373418e+00 3.333333e-02 0.000000e+00
2.405063e+00 3.333333e-02 0.000000e+00
2.436709e+00 3.333333e-02 0.000000e+00
2.468354e+00 3.333333e-02 0.000000e+00
2.500000e+00 3.333333e-02 0.000000e+00
2.531646e+00 3.333333e-02 0.000000e+00
2.563291e+00 3.333333e-02 0.000000e+00
2.594937e+00 3.333333e-02 0.000000e+00
2.626582e+00 3.333333e-02 0.000000e+00
2.658228e+00 3.333333e-02 0.000000e+00
2.689873e+00 3.333333e-02 0.000000e+00
2.721519e+00 3.333333e-02 0.000000e+00
2.753165e+00 3.333333e-02 0.000000e+00
2.784810e+00 3.333333e-02 0.000000e+00
2.816456e+00 3.333333e-02 0.000000e+00
2.848101e+00 3.333333e-02 0.000000e+00
2.879747e+00 3.333333e-02 0.000000e+00
[...]
<PointData>
<DataArray Name="Velocity" type="Float64" format="ascii" NumberOfComponents="3">
0.000000e+00 0.000000e+00 0
0.000000e+00 0.000000e+00 0
0.000000e+00 0.000000e+00 0
0.000000e+00 0.000000e+00 0
0.000000e+00 0.000000e+00 0
0.000000e+00 0.000000e+00 0
0.000000e+00 0.000000e+00 0
0.000000e+00 0.000000e+00 0
0.000000e+00 0.000000e+00 0
0.000000e+00 0.000000e+00 0
0.000000e+00 0.000000e+00 0
0.000000e+00 0.000000e+00 0
0.000000e+00 0.000000e+00 0
0.000000e+00 0.000000e+00 0
0.000000e+00 0.000000e+00 0
0.000000e+00 0.000000e+00 0
0.000000e+00 0.000000e+00 0
0.000000e+00 0.000000e+00 0
0.000000e+00 0.000000e+00 0
3.326941e-18 0.000000e+00 0
0.000000e+00 0.000000e+00 0
0.000000e+00 0.000000e+00 0
0.000000e+00 0.000000e+00 0
-1.102215e-18 0.000000e+00 0
0.000000e+00 0.000000e+00 0
0.000000e+00 0.000000e+00 0
0.000000e+00 0.000000e+00 0
-2.351094e-19 0.000000e+00 0
0.000000e+00 0.000000e+00 0
0.000000e+00 0.000000e+00 0
0.000000e+00 0.000000e+00 0
3.881441e-19 0.000000e+00 0
0.000000e+00 0.000000e+00 0
0.000000e+00 0.000000e+00 0
0.000000e+00 0.000000e+00 0
0.000000e+00 0.000000e+00 0
0.000000e+00 0.000000e+00 0
0.000000e+00 0.000000e+00 0
1.081745e-18 0.000000e+00 0
0.000000e+00 0.000000e+00 0
0.000000e+00 0.000000e+00 0
0.000000e+00 0.000000e+00 0
0.000000e+00 0.000000e+00 0
0.000000e+00 0.000000e+00 0
0.000000e+00 0.000000e+00 0
0.000000e+00 0.000000e+00 0
1.688666e-18 0.000000e+00 0
0.000000e+00 0.000000e+00 0
0.000000e+00 0.000000e+00 0
0.000000e+00 0.000000e+00 0
0.000000e+00 0.000000e+00 0
0.000000e+00 0.000000e+00 0
0.000000e+00 0.000000e+00 0
0.000000e+00 0.000000e+00 0
4.032302e-18 0.000000e+00 0
0.000000e+00 0.000000e+00 0
0.000000e+00 0.000000e+00 0
0.000000e+00 0.000000e+00 0
0.000000e+00 0.000000e+00 0
0.000000e+00 0.000000e+00 0
0.000000e+00 0.000000e+00 0
0.000000e+00 0.000000e+00 0
4.694266e-19 0.000000e+00 0
0.000000e+00 0.000000e+00 0
0.000000e+00 0.000000e+00 0
0.000000e+00 0.000000e+00 0
0.000000e+00 0.000000e+00 0
0.000000e+00 0.000000e+00 0
0.000000e+00 0.000000e+00 0
0.000000e+00 0.000000e+00 0
0.000000e+00 0.000000e+00 0
0.000000e+00 0.000000e+00 0
0.000000e+00 0.000000e+00 0
0.000000e+00 0.000000e+00 0
0.000000e+00 0.000000e+00 0
0.000000e+00 0.000000e+00 0
0.000000e+00 0.000000e+00 0
0.000000e+00 0.000000e+00 0
0.000000e+00 0.000000e+00 0
0.000000e+00 0.000000e+00 0
0.000000e+00 0.000000e+00 0
0.000000e+00 0.000000e+00 0
0.000000e+00 0.000000e+00 0
0.000000e+00 0.000000e+00 0
0.000000e+00 0.000000e+00 0
0.000000e+00 0.000000e+00 0
0.000000e+00 0.000000e+00 0
0.000000e+00 0.000000e+00 0
0.000000e+00 0.000000e+00 0
0.000000e+00 0.000000e+00 0
0.000000e+00 0.000000e+00 0
0.000000e+00 0.000000e+00 0
0.000000e+00 0.000000e+00 0
0.000000e+00 0.000000e+00 0
0.000000e+00 0.000000e+00 0
0.000000e+00 0.000000e+00 0
0.000000e+00 0.000000e+00 0
0.000000e+00 0.000000e+00 0
0.000000e+00 0.000000e+00 0
0.000000e+00 0.000000e+00 0
0.000000e+00 0.000000e+00 0
0.000000e+00 0.000000e+00 0
0.000000e+00 0.000000e+00 0
0.000000e+00 0.000000e+00 0
0.000000e+00 0.000000e+00 0
0.000000e+00 0.000000e+00 0
0.000000e+00 0.000000e+00 0
0.000000e+00 0.000000e+00 0
0.000000e+00 0.000000e+00 0
0.000000e+00 0.000000e+00 0
0.000000e+00 0.000000e+00 0
0.000000e+00 0.000000e+00 0
0.000000e+00 0.000000e+00 0
0.000000e+00 0.000000e+00 0
0.000000e+00 0.000000e+00 0
0.000000e+00 0.000000e+00 0
0.000000e+00 0.000000e+00 0
0.000000e+00 0.000000e+00 0
0.000000e+00 0.000000e+00 0
0.000000e+00 0.000000e+00 0
0.000000e+00 0.000000e+00 0
0.000000e+00 0.000000e+00 0
0.000000e+00 0.000000e+00 0
0.000000e+00 0.000000e+00 0
0.000000e+00 0.000000e+00 0
0.000000e+00 0.000000e+00 0
0.000000e+00 0.000000e+00 0
0.000000e+00 0.000000e+00 0
0.000000e+00 0.000000e+00 0
0.000000e+00 0.000000e+00 0
0.000000e+00 0.000000e+00 0
0.000000e+00 0.000000e+00 0
0.000000e+00 0.000000e+00 0
0.000000e+00 0.000000e+00 0
0.000000e+00 0.000000e+00 0
0.000000e+00 0.000000e+00 0
0.000000e+00 0.000000e+00 0
0.000000e+00 0.000000e+00 0
0.000000e+00 0.000000e+00 0
0.000000e+00 0.000000e+00 0
0.000000e+00 0.000000e+00 0
0.000000e+00 0.000000e+00 0
0.000000e+00 0.000000e+00 0
0.000000e+00 0.000000e+00 0
0.000000e+00 0.000000e+00 0
0.000000e+00 0.000000e+00 0
0.000000e+00 0.000000e+00 0
0.000000e+00 0.000000e+00 0
0.000000e+00 0.000000e+00 0
0.000000e+00 0.000000e+00 0
0.000000e+00 0.000000e+00 0
0.000000e+00 0.000000e+00 0
0.000000e+00 0.000000e+00 0
0.000000e+00 0.000000e+00 0
0.000000e+00 0.000000e+00 0
0.000000e+00 0.000000e+00 0
0.000000e+00 0.000000e+00 0
0.000000e+00 0.000000e+00 0
0.000000e+00 0.000000e+00 0
2.227211e-01 2.391948e-04 0
2.227211e-01 2.781413e-04 0
2.224540e-01 3.641733e-04 0
2.221010e-01 4.792506e-04 0
2.216144e-01 6.432477e-04 0
2.209370e-01 8.692715e-04 0
2.200008e-01 1.169207e-03 0
2.187267e-01 1.554803e-03 0
2.170232e-01 2.037550e-03 0
2.147874e-01 2.628109e-03 0
2.119049e-01 3.335461e-03 0
2.082517e-01 4.165835e-03 0
2.036966e-01 5.121324e-03 0
1.981050e-01 6.198022e-03 0
1.913446e-01 7.383500e-03 0
1.832938e-01 8.653462e-03 0
1.738530e-01 9.967500e-03 0
1.629599e-01 1.126390e-02 0
1.506094e-01 1.245365e-02 0
1.368764e-01 1.341594e-02 0
1.219395e-01 1.402844e-02 0
1.060993e-01 1.425614e-02 0
8.982771e-02 1.366652e-02 0
7.394282e-02 1.071595e-02 0
5.940382e-02 6.418665e-03 0
4.671031e-02 4.859791e-03 0
3.639102e-02 5.646992e-03 0
2.993898e-02 3.369523e-03 0
2.901551e-02 -1.240172e-03 0
2.860958e-02 3.240687e-05 0
4.308167e-03 2.302612e-02 0
-4.375730e-02 4.992942e-02 0
-9.683047e-02 5.628223e-02 0
-1.489782e-01 5.388061e-02 0
-1.983980e-01 4.994518e-02 0
-2.432927e-01 4.414042e-02 0
-2.812339e-01 3.582118e-02 0
-3.095793e-01 2.496079e-02 0
-3.259123e-01 1.192959e-02 0
-3.283960e-01 -2.699457e-03 0
-3.159442e-01 -1.775117e-02 0
-2.895490e-01 -3.134620e-02 0
-2.518378e-01 -4.192034e-02 0
-2.062032e-01 -4.871037e-02 0
-1.563498e-01 -5.161801e-02 0
-1.056492e-01 -5.103487e-02 0
-5.701652e-02 -4.772521e-02 0
-1.253130e-02 -4.280531e-02 0
2.649180e-02 -3.696766e-02 0
5.962685e-02 -3.080723e-02 0
8.701276e-02 -2.495136e-02 0
1.090170e-01 -1.958334e-02 0
1.261695e-01 -1.483710e-02 0
1.390924e-01 -1.078047e-02 0
1.484380e-01 -7.424538e-03 0
1.548430e-01 -4.736303e-03 0
1.588960e-01 -2.653899e-03 0
1.611182e-01 -1.104828e-03 0
1.619524e-01 -4.115282e-06 0
1.617638e-01 7.646034e-04 0
1.608495e-01 1.301848e-03 0
1.594409e-01 1.662416e-03 0
1.577150e-01 1.885973e-03 0
1.558045e-01 2.004700e-03 0
1.538074e-01 2.045187e-03 0
1.517944e-01 2.028991e-03 0
1.498149e-01 1.973131e-03 0
1.479029e-01 1.890721e-03 0
1.460801e-01 1.791645e-03 0
1.443597e-01 1.683212e-03 0
1.427484e-01 1.570722e-03 0
1.412485e-01 1.457938e-03 0
1.398589e-01 1.347469e-03 0
1.385766e-01 1.241062e-03 0
1.373971e-01 1.139831e-03 0
1.363148e-01 1.044428e-03 0
1.353240e-01 9.551731e-04 0
1.344184e-01 8.721496e-04 0
1.335920e-01 7.952774e-04 0
1.328388e-01 7.243649e-04 0
1.321530e-01 6.591481e-04 0
1.315291e-01 5.993187e-04 0
1.309621e-01 5.445450e-04 0
1.304470e-01 4.944859e-04 0
1.299793e-01 4.488017e-04 0
1.295549e-01 4.071606e-04 0
1.291700e-01 3.692440e-04 0
1.288209e-01 3.347492e-04 0
1.285045e-01 3.033908e-04 0
1.282178e-01 2.749021e-04 0
1.279581e-01 2.490349e-04 0
1.277228e-01 2.255593e-04 0
1.275097e-01 2.042630e-04 0
1.273168e-01 1.849507e-04 0
1.271421e-01 1.674432e-04 0
1.269840e-01 1.515761e-04 0
1.268409e-01 1.371993e-04 0
1.267114e-01 1.241756e-04 0
1.265942e-01 1.123799e-04 0
1.264881e-01 1.016980e-04 0
1.263922e-01 9.202633e-05 0
1.263054e-01 8.327038e-05 0
1.262269e-01 7.534437e-05 0
1.261558e-01 6.817035e-05 0
1.260916e-01 6.167754e-05 0
1.260335e-01 5.580170e-05 0
1.259809e-01 5.048457e-05 0
1.259334e-01 4.567331e-05 0
1.258904e-01 4.132001e-05 0
1.258515e-01 3.738125e-05 0
1.258163e-01 3.381771e-05 0
1.257845e-01 3.059375e-05 0
1.257558e-01 2.767711e-05 0
1.257298e-01 2.503856e-05 0
1.257063e-01 2.265161e-05 0
1.256851e-01 2.049231e-05 0
1.256658e-01 1.853895e-05 0
1.256485e-01 1.677190e-05 0
1.256328e-01 1.517337e-05 0
1.256186e-01 1.372727e-05 0
1.256058e-01 1.241906e-05 0
1.255942e-01 1.123556e-05 0
1.255837e-01 1.016484e-05 0
1.255742e-01 9.196142e-06 0
1.255656e-01 8.319707e-06 0
1.255579e-01 7.526714e-06 0
1.255509e-01 6.809178e-06 0
1.255446e-01 6.159876e-06 0
1.255389e-01 5.572268e-06 0
1.255337e-01 5.040437e-06 0
1.255291e-01 4.559031e-06 0
1.255249e-01 4.123205e-06 0
1.255211e-01 3.728578e-06 0
1.255177e-01 3.371182e-06 0
1.255146e-01 3.047429e-06 0
1.255118e-01 2.754070e-06 0
1.255093e-01 2.488163e-06 0
1.255070e-01 2.247045e-06 0
1.255049e-01 2.028303e-06 0
1.255031e-01 1.829750e-06 0
1.255014e-01 1.649405e-06 0
1.254999e-01 1.485471e-06 0
1.254986e-01 1.336317e-06 0
1.254974e-01 1.200463e-06 0
1.254963e-01 1.076565e-06 0
1.254954e-01 9.633980e-07 0
1.254945e-01 8.598503e-07 0
1.254937e-01 7.649097e-07 0
1.254930e-01 6.776554e-07 0
1.254924e-01 5.972512e-07 0
1.254919e-01 5.229410e-07 0
1.254914e-01 4.540477e-07 0
1.254910e-01 3.899797e-07 0
1.254907e-01 3.302477e-07 0
1.254904e-01 2.745077e-07 0
1.254902e-01 2.226516e-07 0
1.254900e-01 1.749127e-07 0
1.254898e-01 1.370716e-07 0
1.254898e-01 1.220177e-07 0
2.875811e-01 4.682123e-04 0
2.875811e-01 5.154740e-04 0
2.873603e-01 6.531578e-04 0
2.870758e-01 8.843629e-04 0
2.866812e-01 1.226159e-03 0
2.861261e-01 1.699651e-03 0
2.853523e-01 2.328184e-03 0
2.842915e-01 3.136416e-03 0
2.828637e-01 4.149375e-03 0
2.809758e-01 5.391318e-03 0
2.785210e-01 6.884262e-03 0
2.753781e-01 8.646067e-03 0
2.714116e-01 1.068790e-02 0
2.664729e-01 1.301081e-02 0
2.604031e-01 1.560116e-02 0
2.530372e-01 1.842455e-02 0
2.442116e-01 2.141838e-02 0
2.337743e-01 2.448325e-02 0
2.215991e-01 2.747466e-02 0
2.076037e-01 3.019901e-02 0
1.917720e-01 3.241852e-02 0
1.742137e-01 3.382440e-02 0
1.552962e-01 3.387154e-02 0
1.352630e-01 3.204653e-02 0
1.135190e-01 2.868495e-02 0
9.164221e-02 2.424019e-02 0
7.380193e-02 1.766585e-02 0
6.334519e-02 7.768927e-03 0
5.823123e-02 1.400365e-03 0
3.870625e-02 2.602514e-02 0
-1.453313e-02 7.622653e-02 0
-6.749214e-02 1.065328e-01 0
-1.174567e-01 1.108328e-01 0
-1.669181e-01 1.069846e-01 0
-2.144950e-01 9.934475e-02 0
-2.578053e-01 8.725401e-02 0
-2.939903e-01 6.982201e-02 0
-3.200089e-01 4.706143e-02 0
-3.330774e-01 1.982048e-02 0
-3.312218e-01 -1.049947e-02 0
-3.137594e-01 -4.091851e-02 0
-2.828367e-01 -6.752510e-02 0
-2.418157e-01 -8.779059e-02 0
-1.940716e-01 -1.005803e-01 0
-1.431407e-01 -1.059165e-01 0
-9.198102e-02 -1.046307e-01 0
-4.314341e-02 -9.808384e-02 0
1.641083e-03 -8.796170e-02 0
4.072966e-02 -7.600616e-02 0
7.414612e-02 -6.374831e-02 0
1.018878e-01 -5.202382e-02 0
1.242455e-01 -4.124469e-02 0
1.417204e-01 -3.167895e-02 0
1.549340e-01 -2.345560e-02 0
1.645455e-01 -1.659014e-02 0
1.711922e-01 -1.101530e-02 0
1.754560e-01 -6.609419e-03 0
1.778445e-01 -3.218852e-03 0
1.787814e-01 -6.794756e-04 0
1.786205e-01 1.162182e-03 0
1.776758e-01 2.447235e-03 0
1.761990e-01 3.302253e-03 0
1.743827e-01 3.830939e-03 0
1.723703e-01 4.116507e-03 0
1.702667e-01 4.224553e-03 0
1.681468e-01 4.205943e-03 0
1.660629e-01 4.099526e-03 0
1.640505e-01 3.934550e-03 0
1.621323e-01 3.732729e-03 0
1.603220e-01 3.509968e-03 0
1.586266e-01 3.277737e-03 0
1.570485e-01 3.044164e-03 0
1.555864e-01 2.814884e-03 0
1.542371e-01 2.593679e-03 0
1.529959e-01 2.382975e-03 0
1.518570e-01 2.184207e-03 0
1.508141e-01 1.998099e-03 0
1.498610e-01 1.824871e-03 0
1.489910e-01 1.664387e-03 0
1.481981e-01 1.516274e-03 0
1.474760e-01 1.379999e-03 0
1.468191e-01 1.254937e-03 0
1.462219e-01 1.140404e-03 0
1.456794e-01 1.035700e-03 0
1.451868e-01 9.401212e-04 0
1.447397e-01 8.529810e-04 0
1.443342e-01 7.736180e-04 0
1.439664e-01 7.014030e-04 0
1.436330e-01 6.357429e-04 0
1.433309e-01 5.760819e-04 0
1.430571e-01 5.219030e-04 0
1.428091e-01 4.727266e-04 0
1.425845e-01 4.281099e-04 0
1.423811e-01 3.876454e-04 0
1.421969e-01 3.509585e-04 0
1.420302e-01 3.177061e-04 0
1.418793e-01 2.875742e-04 0
1.417427e-01 2.602760e-04 0
1.416191e-01 2.355498e-04 0
1.415073e-01 2.131572e-04 0
1.414061e-01 1.928809e-04 0
1.413145e-01 1.745235e-04 0
1.412317e-01 1.579053e-04 0
1.411567e-01 1.428631e-04 0
1.410889e-01 1.292488e-04 0
1.410276e-01 1.169278e-04 0
1.409721e-01 1.057781e-04 0
1.409219e-01 9.568905e-05 0
1.408765e-01 8.656021e-05 0
1.408355e-01 7.830065e-05 0
1.407984e-01 7.082793e-05 0
1.407648e-01 6.406737e-05 0
1.407344e-01 5.795129e-05 0
1.407070e-01 5.241842e-05 0
1.406821e-01 4.741326e-05 0
1.406597e-01 4.288557e-05 0
1.406394e-01 3.878986e-05 0
1.406210e-01 3.508497e-05 0
1.406044e-01 3.173363e-05 0
1.405894e-01 2.870210e-05 0
1.405759e-01 2.595987e-05 0
1.405636e-01 2.347931e-05 0
1.405525e-01 2.123545e-05 0
1.405425e-01 1.920565e-05 0
1.405334e-01 1.736945e-05 0
1.405253e-01 1.570835e-05 0
1.405179e-01 1.420558e-05 0
1.405112e-01 1.284599e-05 0
1.405051e-01 1.161585e-05 0
1.404997e-01 1.050276e-05 0
1.404947e-01 9.495502e-06 0
1.404903e-01 8.583901e-06 0
1.404862e-01 7.758769e-06 0
1.404826e-01 7.011785e-06 0
1.404793e-01 6.335419e-06 0
1.404763e-01 5.722853e-06 0
1.404737e-01 5.167914e-06 0
1.404713e-01 4.665012e-06 0
1.404691e-01 4.209085e-06 0
1.404671e-01 3.795543e-06 0
1.404653e-01 3.420229e-06 0
1.404638e-01 3.079370e-06 0
1.404623e-01 2.769543e-06 0
1.404610e-01 2.487643e-06 0
1.404599e-01 2.230846e-06 0
1.404588e-01 1.996586e-06 0
1.404579e-01 1.782529e-06 0
1.404571e-01 1.586550e-06 0
1.404563e-01 1.406716e-06 0
1.404557e-01 1.241269e-06 0
1.404551e-01 1.088614e-06 0
1.404546e-01 9.473163e-07 0
1.404542e-01 8.161064e-07 0
1.404538e-01 6.939030e-07 0
1.404535e-01 5.798760e-07 0
1.404532e-01 4.735922e-07 0
1.404530e-01 3.753970e-07 0
1.404528e-01 2.869131e-07 0
1.404528e-01 2.453956e-07 0
3.040648e-01 6.798227e-04 0
3.040648e-01 7.310740e-04 0
3.038668e-01 8.964618e-04 0
3.036313e-01 1.194577e-03 0
3.033277e-01 1.643582e-03 0
3.029223e-01 2.268978e-03 0
3.023769e-01 3.101607e-03 0
3.016456e-01 4.176186e-03 0
3.006736e-01 5.530133e-03 0
2.993947e-01 7.202355e-03 0
2.977293e-01 9.231648e-03 0
2.955822e-01 1.165442e-02 0
2.928406e-01 1.450148e-02 0
2.893720e-01 1.779368e-02 0
2.850235e-01 2.153582e-02 0
2.796202e-01 2.570853e-02 0
2.729672e-01 3.025780e-02 0
2.648522e-01 3.508238e-02 0
2.550536e-01 4.001998e-02 0
2.433549e-01 4.483388e-02 0
2.295702e-01 4.919923e-02 0
2.135890e-01 5.267732e-02 0
1.954050e-01 5.469461e-02 0
1.750196e-01 5.472129e-02 0
1.526890e-01 5.236593e-02 0
1.296799e-01 4.669508e-02 0
1.084796e-01 3.545321e-02 0
9.239451e-02 1.977069e-02 0
7.225687e-02 2.471287e-02 0
2.757994e-02 7.667756e-02 0
-2.995249e-02 1.348885e-01 0
-7.716622e-02 1.583423e-01 0
-1.216127e-01 1.610110e-01 0
-1.650449e-01 1.560943e-01 0
-2.080831e-01 1.456797e-01 0
-2.479584e-01 1.278755e-01 0
-2.811555e-01 1.013424e-01 0
-3.040434e-01 6.613262e-02 0
-3.131801e-01 2.374064e-02 0
-3.060402e-01 -2.304760e-02 0
-2.832301e-01 -6.871662e-02 0
-2.481272e-01 -1.071268e-01 0
-2.051315e-01 -1.354194e-01 0
-1.573575e-01 -1.526478e-01 0
-1.080465e-01 -1.591533e-01 0
-5.978703e-02 -1.563652e-01 0
-1.444580e-02 -1.463403e-01 0
2.632472e-02 -1.311514e-01 0
6.211688e-02 -1.133394e-01 0
9.276896e-02 -9.522694e-02 0
1.181596e-01 -7.772252e-02 0
1.384270e-01 -6.154014e-02 0
1.539599e-01 -4.716214e-02 0
1.653437e-01 -3.482268e-02 0
1.732579e-01 -2.454962e-02 0
1.783780e-01 -1.622849e-02 0
1.813149e-01 -9.660766e-03 0
1.825899e-01 -4.607354e-03 0
1.826333e-01 -8.212395e-04 0
1.817921e-01 1.929332e-03 0
1.803366e-01 3.852704e-03 0
1.784777e-01 5.131454e-03 0
1.763759e-01 5.919102e-03 0
1.741507e-01 6.340388e-03 0
1.718887e-01 6.494154e-03 0
1.696514e-01 6.457191e-03 0
1.674809e-01 6.288169e-03 0
1.654049e-01 6.031250e-03 0
1.634405e-01 5.719216e-03 0
1.615969e-01 5.376064e-03 0
1.598779e-01 5.019095e-03 0
1.582832e-01 4.660561e-03 0
1.568100e-01 4.308944e-03 0
1.554535e-01 3.969934e-03 0
1.542078e-01 3.647166e-03 0
1.530665e-01 3.342786e-03 0
1.520228e-01 3.057863e-03 0
1.510697e-01 2.792704e-03 0
1.502007e-01 2.547084e-03 0
1.494091e-01 2.320418e-03 0
1.486886e-01 2.111882e-03 0
1.480336e-01 1.920509e-03 0
1.474383e-01 1.745255e-03 0
1.468977e-01 1.585040e-03 0
1.464070e-01 1.438789e-03 0
1.459618e-01 1.305449e-03 0
1.455580e-01 1.184008e-03 0
1.451919e-01 1.073503e-03 0
1.448600e-01 9.730259e-04 0
1.445593e-01 8.817275e-04 0
1.442869e-01 7.988161e-04 0
1.440402e-01 7.235584e-04 0
1.438167e-01 6.552772e-04 0
1.436144e-01 5.933487e-04 0
1.434312e-01 5.372003e-04 0
1.432654e-01 4.863071e-04 0
1.431153e-01 4.401887e-04 0
1.429794e-01 3.984065e-04 0
1.428565e-01 3.605602e-04 0
1.427452e-01 3.262848e-04 0
1.426446e-01 2.952483e-04 0
1.425535e-01 2.671484e-04 0
1.424711e-01 2.417102e-04 0
1.423966e-01 2.186841e-04 0
1.423291e-01 1.978434e-04 0
1.422682e-01 1.789822e-04 0
1.422130e-01 1.619139e-04 0
1.421631e-01 1.464689e-04 0
1.421179e-01 1.324938e-04 0
1.420771e-01 1.198494e-04 0
1.420402e-01 1.084094e-04 0
1.420068e-01 9.805951e-05 0
1.419766e-01 8.869628e-05 0
1.419493e-01 8.022585e-05 0
1.419246e-01 7.256331e-05 0
1.419023e-01 6.563176e-05 0
1.418821e-01 5.936157e-05 0
1.418638e-01 5.368972e-05 0
1.418473e-01 4.855917e-05 0
1.418324e-01 4.391830e-05 0
1.418189e-01 3.972037e-05 0
1.418067e-01 3.592311e-05 0
1.417956e-01 3.248825e-05 0
1.417857e-01 2.938117e-05 0
1.417766e-01 2.657055e-05 0
1.417685e-01 2.402802e-05 0
1.417611e-01 2.172795e-05 0
1.417545e-01 1.964713e-05 0
1.417485e-01 1.776456e-05 0
1.417430e-01 1.606123e-05 0
1.417381e-01 1.451997e-05 0
1.417337e-01 1.312521e-05 0
1.417296e-01 1.186288e-05 0
1.417260e-01 1.072023e-05 0
1.417227e-01 9.685748e-06 0
1.417198e-01 8.748983e-06 0
1.417171e-01 7.900487e-06 0
1.417147e-01 7.131702e-06 0
1.417125e-01 6.434875e-06 0
1.417106e-01 5.802983e-06 0
1.417088e-01 5.229658e-06 0
1.417072e-01 4.709127e-06 0
1.417058e-01 4.236149e-06 0
1.417045e-01 3.805971e-06 0
1.417034e-01 3.414269e-06 0
1.417023e-01 3.057117e-06 0
1.417014e-01 2.730941e-06 0
1.417006e-01 2.432486e-06 0
1.416998e-01 2.158789e-06 0
1.416992e-01 1.907150e-06 0
1.416986e-01 1.675113e-06 0
1.416981e-01 1.460451e-06 0
1.416976e-01 1.261162e-06 0
1.416973e-01 1.075473e-06 0
1.416969e-01 9.018656e-07 0
1.416966e-01 7.391181e-07 0
1.416964e-01 5.863813e-07 0
1.416963e-01 4.410023e-07 0
1.416963e-01 3.695685e-07 0
3.125791e-01 8.693279e-04 0
3.125791e-01 9.246442e-04 0
3.124044e-01 1.109756e-03 0
3.122032e-01 1.452200e-03 0
3.119537e-01 1.972971e-03 0
3.116314e-01 2.701189e-03 0
3.112076e-01 3.673057e-03 0
3.106484e-01 4.930550e-03 0
3.099128e-01 6.520306e-03 0
3.089511e-01 8.492615e-03 0
3.077031e-01 1.090007e-02 0
3.060959e-01 1.379554e-02 0
3.040412e-01 1.722929e-02 0
3.014324e-01 2.124485e-02 0
2.981404e-01 2.587310e-02 0
2.940095e-01 3.112385e-02 0
2.888521e-01 3.697406e-02 0
2.824445e-01 4.335216e-02 0
2.745246e-01 5.011840e-02 0
2.647959e-01 5.704154e-02 0
2.529415e-01 6.377194e-02 0
2.386526e-01 6.981178e-02 0
2.216632e-01 7.449802e-02 0
2.018045e-01 7.704071e-02 0
1.792492e-01 7.644284e-02 0
1.547567e-01 7.080750e-02 0
1.298020e-01 5.693977e-02 0
1.044604e-01 4.592352e-02 0
6.710866e-02 6.967173e-02 0
1.270207e-02 1.336857e-01 0
-3.660125e-02 1.865592e-01 0
-7.668809e-02 2.030815e-01 0
-1.119470e-01 2.033984e-01 0
-1.436328e-01 1.980668e-01 0
-1.793778e-01 1.866804e-01 0
-2.137724e-01 1.642237e-01 0
-2.421067e-01 1.288982e-01 0
-2.601792e-01 8.079403e-02 0
-2.640392e-01 2.192394e-02 0
-2.494856e-01 -4.204664e-02 0
-2.205336e-01 -1.019201e-01 0
-1.815321e-01 -1.497889e-01 0
-1.379162e-01 -1.834012e-01 0
-9.224197e-02 -2.028430e-01 0
-4.690661e-02 -2.086905e-01 0
-4.310548e-03 -2.032233e-01 0
3.425774e-02 -1.887880e-01 0
6.816653e-02 -1.686075e-01 0
9.764899e-02 -1.459939e-01 0
1.225206e-01 -1.227798e-01 0
1.429136e-01 -1.001167e-01 0
1.590042e-01 -7.895410e-02 0
1.710196e-01 -6.003103e-02 0
1.793547e-01 -4.378261e-02 0
1.845813e-01 -3.031941e-02 0
1.873447e-01 -1.950186e-02 0
1.882565e-01 -1.104575e-02 0
1.878349e-01 -4.607271e-03 0
1.864949e-01 1.611095e-04 0
1.845525e-01 3.581557e-03 0
1.822412e-01 5.938627e-03 0
1.797306e-01 7.474388e-03 0
1.771418e-01 8.388958e-03 0
1.745593e-01 8.843296e-03 0
1.720405e-01 8.964068e-03 0
1.696229e-01 8.849103e-03 0
1.673299e-01 8.572747e-03 0
1.651742e-01 8.190679e-03 0
1.631617e-01 7.744032e-03 0