<?xml version="1.0"?>
<VTKFile type="StructuredGrid">
<StructuredGrid WholeExtent="0 158 0 30 0 0 ">
<Piece Extent="0 158 0 30 0 0 ">
<Points>
<DataArray type="Float64" format="ascii" NumberOfComponents="3">
0.000000e+00 0.000000e+00 0.000000e+00
3.164557e-02 0.000000e+00 0.000000e+00
6.329114e-02 0.000000e+00 0.000000e+00
9.493671e-02 0.000000e+00 0.000000e+00
1.265823e-01 0.000000e+00 0.000000e+00
1.582278e-01 0.000000e+00 0.000000e+00
1.898734e-01 0.000000e+00 0.000000e+00
2.215190e-01 0.000000e+00 0.000000e+00
2.531646e-01 0.000000e+00 0.000000e+00
2.848101e-01 0.000000e+00 0.000000e+00
3.164557e-01 0.000000e+00 0.000000e+00
3.481013e-01 0.000000e+00 0.000000e+00
3.797468e-01 0.000000e+00 0.000000e+00
4.113924e-01 0.000000e+00 0.000000e+00
4.430380e-01 0.000000e+00 0.000000e+00
4.746835e-01 0.000000e+00 0.000000e+00
5.063291e-01 0.000000e+00 0.000000e+00
5.379747e-01 0.000000e+00 0.000000e+00
5.696203e-01 0.000000e+00 0.000000e+00
6.012658e-01 0.000000e+00 0.000000e+00
6.329114e-01 0.000000e+00 0.000000e+00
6.645570e-01 0.000000e+00 0.000000e+00
6.962025e-01 0.000000e+00 0.000000e+00
7.278481e-01 0.000000e+00 0.000000e+00
7.594937e-01 0.000000e+00 0.000000e+00
7.911392e-01 0.000000e+00 0.000000e+00
8.227848e-01 0.000000e+00 0.000000e+00
8.544304e-01 0.000000e+00 0.000000e+00
8.860759e-01 0.000000e+00 0.000000e+00
9.177215e-01 0.000000e+00 0.000000e+00
9.493671e-01 0.000000e+00 0.000000e+00
9.810127e-01 0.000000e+00 0.000000e+00
1.012658e+00 0.000000e+00 0.000000e+00
1.044304e+00 0.000000e+00 0.000000e+00
1.075949e+00 0.000000e+00 0.000000e+00
1.107595e+00 0.000000e+00 0.000000e+00
1.139241e+00 0.000000e+00 0.000000e+00
1.170886e+00 0.000000e+00 0.000000e+00
1.202532e+00 0.000000e+00 0.000000e+00
1.234177e+00 0.000000e+00 0.000000e+00
1.265823e+00 0.000000e+00 0.000000e+00
1.297468e+00 0.000000e+00 0.000000e+00
1.329114e+00 0.000000e+00 0.000000e+00
1.360759e+00 0.000000e+00 0.000000e+00
1.392405e+00 0.000000e+00 0.000000e+00
1.424051e+00 0.000000e+00 0.000000e+00
1.455696e+00 0.000000e+00 0.000000e+00
1.487342e+00 0.000000e+00 0.000000e+00
1.518987e+00 0.000000e+00 0.000000e+00
1.550633e+00 0.000000e+00 0.000000e+00
1.582278e+00 0.000000e+00 0.000000e+00
1.613924e+00 0.000000e+00 0.000000e+00
1.645570e+00 0.000000e+00 0.000000e+00
1.677215e+00 0.000000e+00 0.000000e+00
1.708861e+00 0.000000e+00 0.000000e+00
1.740506e+00 0.000000e+00 0.000000e+00
1.772152e+00 0.000000e+00 0.000000e+00
1.803797e+00 0.000000e+00 0.000000e+00
1.835443e+00 0.000000e+00 0.000000e+00
1.867089e+00 0.000000e+00 0.000000e+00
1.898734e+00 0.000000e+00 0.000000e+00
1.930380e+00 0.000000e+00 0.000000e+00
1.962025e+00 0.000000e+00 0.000000e+00
1.993671e+00 0.000000e+00 0.000000e+00
2.025316e+00 0.000000e+00 0.000000e+00
2.056962e+00 0.000000e+00 0.000000e+00
2.088608e+00 0.000000e+00 0.000000e+00
2.120253e+00 0.000000e+00 0.000000e+00
2.151899e+00 0.000000e+00 0.000000e+00
2.183544e+00 0.000000e+00 0.000000e+00
2.215190e+00 0.000000e+00 0.000000e+00
2.246835e+00 0.000000e+00 0.000000e+00
2.278481e+00 0.000000e+00 0.000000e+00
2.310127e+00 0.000000e+00 0.000000e+00
2.341772e+00 0.000000e+00 0.000000e+00
2.373418e+00 0.000000e+00 0.000000e+00
2.405063e+00 0.000000e+00 0.000000e+00
2.436709e+00 0.000000e+00 0.000000e+00
2.468354e+00 0.000000e+00 0.000000e+00
2.500000e+00 0.000000e+00 0.000000e+00
2.531646e+00 0.000000e+00 0.000000e+00
2.563291e+00 0.000000e+00 0.000000e+00
2.594937e+00 0.000000e+00 0.000000e+00
2.626582e+00 0.000000e+00 0.000000e+00
2.658228e+00 0.000000e+00 0.000000e+00
2.689873e+00 0.000000e+00 0.000000e+00
2.721519e+00 0.000000e+00 0.000000e+00
2.753165e+00 0.000000e+00 0.000000e+00
2.784810e+00 0.000000e+00 0.000000e+00
2.816456e+00 0.000000e+00 0.000000e+00
2.848101e+00 0.000000e+00 0.000000e+00
2.879747e+00 0.000000e+00 0.000000e+00
2.911392e+00 0.000000e+00 0.000000e+00
2.943038e+00 0.000000e+00 0.000000e+00
2.974684e+00 0.000000e+00 0.000000e+00
3.006329e+00 0.000000e+00 0.000000e+00
3.037975e+00 0.000000e+00 0.000000e+00
3.069620e+00 0.000000e+00 0.000000e+00
3.101266e+00 0.000000e+00 0.000000e+00
3.132911e+00 0.000000e+00 0.000000e+00
3.164557e+00 0.000000e+00 0.000000e+00
3.196203e+00 0.000000e+00 0.000000e+00
3.227848e+00 0.000000e+00 0.000000e+00
3.259494e+00 0.000000e+00 0.000000e+00
3.291139e+00 0.000000e+00 0.000000e+00
3.322785e+00 0.000000e+00 0.000000e+00
3.354430e+00 0.000000e+00 0.000000e+00
3.386076e+00 0.000000e+00 0.000000e+00
3.417722e+00 0.000000e+00 0.000000e+00
3.449367e+00 0.000000e+00 0.000000e+00
3.481013e+00 0.000000e+00 0.000000e+00
3.512658e+00 0.000000e+00 0.000000e+00
3.544304e+00 0.000000e+00 0.000000e+00
3.575949e+00 0.000000e+00 0.000000e+00
3.607595e+00 0.000000e+00 0.000000e+00
3.639241e+00 0.000000e+00 0.000000e+00
3.670886e+00 0.000000e+00 0.000000e+00
3.702532e+00 0.000000e+00 0.000000e+00
3.734177e+00 0.000000e+00 0.000000e+00
3.765823e+00 0.000000e+00 0.000000e+00
3.797468e+00 0.000000e+00 0.000000e+00
3.829114e+00 0.000000e+00 0.000000e+00
3.860759e+00 0.000000e+00 0.000000e+00
3.892405e+00 0.000000e+00 0.000000e+00
3.924051e+00 0.000000e+00 0.000000e+00
3.955696e+00 0.000000e+00 0.000000e+00
3.987342e+00 0.000000e+00 0.000000e+00
4.018987e+00 0.000000e+00 0.000000e+00
4.050633e+00 0.000000e+00 0.000000e+00
4.082278e+00 0.000000e+00 0.000000e+00
4.113924e+00 0.000000e+00 0.000000e+00
4.145570e+00 0.000000e+00 0.000000e+00
4.177215e+00 0.000000e+00 0.000000e+00
4.208861e+00 0.000000e+00 0.000000e+00
4.240506e+00 0.000000e+00 0.000000e+00
4.272152e+00 0.000000e+00 0.000000e+00
4.303797e+00 0.000000e+00 0.000000e+00
4.335443e+00 0.000000e+00 0.000000e+00
4.367089e+00 0.000000e+00 0.000000e+00
4.398734e+00 0.000000e+00 0.000000e+00
4.430380e+00 0.000000e+00 0.000000e+00
4.462025e+00 0.000000e+00 0.000000e+00
4.493671e+00 0.000000e+00 0.000000e+00
4.525316e+00 0.000000e+00 0.000000e+00
4.556962e+00 0.000000e+00 0.000000e+00
4.588608e+00 0.000000e+00 0.000000e+00
4.620253e+00 0.000000e+00 0.000000e+00
4.651899e+00 0.000000e+00 0.000000e+00
4.683544e+00 0.000000e+00 0.000000e+00
4.715190e+00 0.000000e+00 0.000000e+00
4.746835e+00 0.000000e+00 0.000000e+00
4.778481e+00 0.000000e+00 0.000000e+00
4.810127e+00 0.000000e+00 0.000000e+00
4.841772e+00 0.000000e+00 0.000000e+00
4.873418e+00 0.000000e+00 0.000000e+00
4.905063e+00 0.000000e+00 0.000000e+00
4.936709e+00 0.000000e+00 0.000000e+00
4.968354e+00 0.000000e+00 0.000000e+00
5.000000e+00 0.000000e+00 0.000000e+00
0.000000e+00 3.333333e-02 0.000000e+00
3.164557e-02 3.333333e-02 0.000000e+00
6.329114e-02 3.333333e-02 0.000000e+00
9.493671e-02 3.333333e-02 0.000000e+00
1.265823e-01 3.333333e-02 0.000000e+00
1.582278e-01 3.333333e-02 0.000000e+00
1.898734e-01 3.333333e-02 0.000000e+00
2.215190e-01 3.333333e-02 0.000000e+00
2.531646e-01 3.333333e-02 0.000000e+00
2.848101e-01 3.333333e-02 0.000000e+00
3.164557e-01 3.333333e-02 0.000000e+00
3.481013e-01 3.333333e-02 0.000000e+00
3.797468e-01 3.333333e-02 0.000000e+00
4.113924e-01 3.333333e-02 0.000000e+00
4.430380e-01 3.333333e-02 0.000000e+00
4.746835e-01 3.333333e-02 0.000000e+00
5.063291e-01 3.333333e-02 0.000000e+00
5.379747e-01 3.333333e-02 0.000000e+00
5.696203e-01 3.333333e-02 0.000000e+00
6.012658e-01 3.333333e-02 0.000000e+00
6.329114e-01 3.333333e-02 0.000000e+00
6.645570e-01 3.333333e-02 0.000000e+00
6.962025e-01 3.333333e-02 0.000000e+00
7.278481e-01 3.333333e-02 0.000000e+00
7.594937e-01 3.333333e-02 0.000000e+00
7.911392e-01 3.333333e-02 0.000000e+00
8.227848e-01 3.333333e-02 0.000000e+00
8.544304e-01 3.333333e-02 0.000000e+00
8.860759e-01 3.333333e-02 0.000000e+00
9.177215e-01 3.333333e-02 0.000000e+00
9.493671e-01 3.333333e-02 0.000000e+00
9.810127e-01 3.333333e-02 0.000000e+00
1.012658e+00 3.333333e-02 0.000000e+00
1.044304e+00 3.333333e-02 0.000000e+00
1.075949e+00 3.333333e-02 0.000000e+00
1.107595e+00 3.333333e-02 0.000000e+00
1.139241e+00 3.333333e-02 0.000000e+00
1.170886e+00 3.333333e-02 0.000000e+00
1.202532e+00 3.333333e-02 0.000000e+00
1.234177e+00 3.333333e-02 0.000000e+00
1.265823e+00 3.333333e-02 0.000000e+00
1.297468e+00 3.333333e-02 0.000000e+00
1.329114e+00 3.333333e-02 0.000000e+00
1.360759e+00 3.333333e-02 0.000000e+00
1.392405e+00 3.333333e-02 0.000000e+00
1.424051e+00 3.333333e-02 0.000000e+00
1.455696e+00 3.333333e-02 0.000000e+00
1.487342e+00 3.333333e-02 0.000000e+00
1.518987e+00 3.333333e-02 0.000000e+00
1.550633e+00 3.333333e-02 0.000000e+00
1.582278e+00 3.333333e-02 0.000000e+00
1.613924e+00 3.333333e-02 0.000000e+00
1.645570e+00 3.333333e-02 0.000000e+00
1.677215e+00 3.333333e-02 0.000000e+00
1.708861e+00 3.333333e-02 0.000000e+00
1.740506e+00 3.333333e-02 0.000000e+00
1.772152e+00 3.333333e-02 0.000000e+00
1.803797e+00 3.333333e-02 0.000000e+00
1.835443e+00 3.333333e-02 0.000000e+00
1.867089e+00 3.333333e-02 0.000000e+00
1.898734e+00 3.333333e-02 0.000000e+00
1.930380e+00 3.333333e-02 0.000000e+00
1.962025e+00 3.333333e-02 0.000000e+00
1.993671e+00 3.333333e-02 0.000000e+00
2.025316e+00 3.333333e-02 0.000000e+00
2.056962e+00 3.333333e-02 0.000000e+00
2.088608e+00 3.333333e-02 0.000000e+00
2.120253e+00 3.333333e-02 0.000000e+00
2.151899e+00 3.333333e-02 0.000000e+00
2.183544e+00 3.333333e-02 0.000000e+00
2.215190e+00 3.333333e-02 0.000000e+00
2.246835e+00 3.333333e-02 0.000000e+00
2.278481e+00 3.333333e-02 0.000000e+00
2.310127e+00 3.333333e-02 0.000000e+00
2.341772e+00 3.333333e-02 0.000000e+00
2.373418e+00 3.333333e-02 0.000000e+00
2.405063e+00 3.333333e-02 0.000000e+00
2.436709e+00 3.333333e-02 0.000000e+00
2.468354e+00 3.333333e-02 0.000000e+00
2.500000e+00 3.333333e-02 0.000000e+00
2.531646e+00 3.333333e-02 0.000000e+00
2.563291e+00 3.333333e-02 0.000000e+00
2.594937e+00 3.333333e-02 0.000000e+00
2.626582e+00 3.333333e-02 0.000000e+00
2.658228e+00 3.333333e-02 0.000000e+00
2.689873e+00 3.333333e-02 0.000000e+00
2.721519e+00 3.333333e-02 0.000000e+00
2.753165e+00 3.333333e-02 0.000000e+00
2.784810e+00 3.333333e-02 0.000000e+00
2.816456e+00 3.333333e-02 0.000000e+00
2.848101e+00 3.333333e-02 0.000000e+00
2.879747e+00 3.333333e-02 0.000000e+00
[...]
<PointData>
<DataArray Name="Velocity" type="Float64" format="ascii" NumberOfComponents="3">
0.000000e+00 0.000000e+00 0
0.000000e+00 0.000000e+00 0
0.000000e+00 0.000000e+00 0
0.000000e+00 0.000000e+00 0
0.000000e+00 0.000000e+00 0
0.000000e+00 0.000000e+00 0
0.000000e+00 0.000000e+00 0
0.000000e+00 0.000000e+00 0
0.000000e+00 0.000000e+00 0
0.000000e+00 0.000000e+00 0
0.000000e+00 0.000000e+00 0
0.000000e+00 0.000000e+00 0
0.000000e+00 0.000000e+00 0
0.000000e+00 0.000000e+00 0
0.000000e+00 0.000000e+00 0
0.000000e+00 0.000000e+00 0
0.000000e+00 0.000000e+00 0
0.000000e+00 0.000000e+00 0
0.000000e+00 0.000000e+00 0
-5.281179e-17 0.000000e+00 0
0.000000e+00 0.000000e+00 0
0.000000e+00 0.000000e+00 0
0.000000e+00 0.000000e+00 0
2.403438e-17 0.000000e+00 0
0.000000e+00 0.000000e+00 0
0.000000e+00 0.000000e+00 0
0.000000e+00 0.000000e+00 0
-3.848128e-17 0.000000e+00 0
0.000000e+00 0.000000e+00 0
0.000000e+00 0.000000e+00 0
0.000000e+00 0.000000e+00 0
2.684747e-17 0.000000e+00 0
0.000000e+00 0.000000e+00 0
0.000000e+00 0.000000e+00 0
0.000000e+00 0.000000e+00 0
0.000000e+00 0.000000e+00 0
0.000000e+00 0.000000e+00 0
0.000000e+00 0.000000e+00 0
-7.875370e-18 0.000000e+00 0
0.000000e+00 0.000000e+00 0
0.000000e+00 0.000000e+00 0
0.000000e+00 0.000000e+00 0
0.000000e+00 0.000000e+00 0
0.000000e+00 0.000000e+00 0
0.000000e+00 0.000000e+00 0
0.000000e+00 0.000000e+00 0
-6.275691e-18 0.000000e+00 0
0.000000e+00 0.000000e+00 0
0.000000e+00 0.000000e+00 0
0.000000e+00 0.000000e+00 0
0.000000e+00 0.000000e+00 0
0.000000e+00 0.000000e+00 0
0.000000e+00 0.000000e+00 0
0.000000e+00 0.000000e+00 0
-2.461367e-17 0.000000e+00 0
0.000000e+00 0.000000e+00 0
0.000000e+00 0.000000e+00 0
0.000000e+00 0.000000e+00 0
0.000000e+00 0.000000e+00 0
0.000000e+00 0.000000e+00 0
0.000000e+00 0.000000e+00 0
0.000000e+00 0.000000e+00 0
-2.240572e-17 0.000000e+00 0
0.000000e+00 0.000000e+00 0
0.000000e+00 0.000000e+00 0
0.000000e+00 0.000000e+00 0
0.000000e+00 0.000000e+00 0
0.000000e+00 0.000000e+00 0
0.000000e+00 0.000000e+00 0
0.000000e+00 0.000000e+00 0
0.000000e+00 0.000000e+00 0
0.000000e+00 0.000000e+00 0
0.000000e+00 0.000000e+00 0
0.000000e+00 0.000000e+00 0
0.000000e+00 0.000000e+00 0
0.000000e+00 0.000000e+00 0
0.000000e+00 0.000000e+00 0
0.000000e+00 0.000000e+00 0
0.000000e+00 0.000000e+00 0
0.000000e+00 0.000000e+00 0
0.000000e+00 0.000000e+00 0
0.000000e+00 0.000000e+00 0
0.000000e+00 0.000000e+00 0
0.000000e+00 0.000000e+00 0
0.000000e+00 0.000000e+00 0
0.000000e+00 0.000000e+00 0
0.000000e+00 0.000000e+00 0
0.000000e+00 0.000000e+00 0
0.000000e+00 0.000000e+00 0
0.000000e+00 0.000000e+00 0
0.000000e+00 0.000000e+00 0
0.000000e+00 0.000000e+00 0
0.000000e+00 0.000000e+00 0
0.000000e+00 0.000000e+00 0
0.000000e+00 0.000000e+00 0
0.000000e+00 0.000000e+00 0
0.000000e+00 0.000000e+00 0
0.000000e+00 0.000000e+00 0
0.000000e+00 0.000000e+00 0
0.000000e+00 0.000000e+00 0
0.000000e+00 0.000000e+00 0
0.000000e+00 0.000000e+00 0
0.000000e+00 0.000000e+00 0
0.000000e+00 0.000000e+00 0
0.000000e+00 0.000000e+00 0
0.000000e+00 0.000000e+00 0
0.000000e+00 0.000000e+00 0
0.000000e+00 0.000000e+00 0
0.000000e+00 0.000000e+00 0
0.000000e+00 0.000000e+00 0
0.000000e+00 0.000000e+00 0
0.000000e+00 0.000000e+00 0
0.000000e+00 0.000000e+00 0
0.000000e+00 0.000000e+00 0
0.000000e+00 0.000000e+00 0
0.000000e+00 0.000000e+00 0
0.000000e+00 0.000000e+00 0
0.000000e+00 0.000000e+00 0
0.000000e+00 0.000000e+00 0
0.000000e+00 0.000000e+00 0
0.000000e+00 0.000000e+00 0
0.000000e+00 0.000000e+00 0
0.000000e+00 0.000000e+00 0
0.000000e+00 0.000000e+00 0
0.000000e+00 0.000000e+00 0
0.000000e+00 0.000000e+00 0
0.000000e+00 0.000000e+00 0
0.000000e+00 0.000000e+00 0
0.000000e+00 0.000000e+00 0
0.000000e+00 0.000000e+00 0
0.000000e+00 0.000000e+00 0
0.000000e+00 0.000000e+00 0
0.000000e+00 0.000000e+00 0
0.000000e+00 0.000000e+00 0
0.000000e+00 0.000000e+00 0
0.000000e+00 0.000000e+00 0
0.000000e+00 0.000000e+00 0
0.000000e+00 0.000000e+00 0
0.000000e+00 0.000000e+00 0
0.000000e+00 0.000000e+00 0
0.000000e+00 0.000000e+00 0
0.000000e+00 0.000000e+00 0
0.000000e+00 0.000000e+00 0
0.000000e+00 0.000000e+00 0
0.000000e+00 0.000000e+00 0
0.000000e+00 0.000000e+00 0
0.000000e+00 0.000000e+00 0
0.000000e+00 0.000000e+00 0
0.000000e+00 0.000000e+00 0
0.000000e+00 0.000000e+00 0
0.000000e+00 0.000000e+00 0
0.000000e+00 0.000000e+00 0
0.000000e+00 0.000000e+00 0
0.000000e+00 0.000000e+00 0
0.000000e+00 0.000000e+00 0
0.000000e+00 0.000000e+00 0
0.000000e+00 0.000000e+00 0
0.000000e+00 0.000000e+00 0
0.000000e+00 0.000000e+00 0
1.755394e+00 -4.403791e-05 0
1.755394e+00 -4.692655e-05 0
1.755433e+00 -4.163315e-05 0
1.755457e+00 -1.849170e-05 0
1.755456e+00 1.554700e-05 0
1.755419e+00 5.946261e-05 0
1.755334e+00 1.158448e-04 0
1.755190e+00 1.865356e-04 0
1.754970e+00 2.733800e-04 0
1.754660e+00 3.783991e-04 0
1.754240e+00 5.038476e-04 0
1.753691e+00 6.522394e-04 0
1.752989e+00 8.264149e-04 0
1.752107e+00 1.029634e-03 0
1.751017e+00 1.265597e-03 0
1.749685e+00 1.538524e-03 0
1.748075e+00 1.853244e-03 0
1.746144e+00 2.215269e-03 0
1.743844e+00 2.631059e-03 0
1.741121e+00 3.108312e-03 0
1.737911e+00 3.656256e-03 0
1.734143e+00 4.286017e-03 0
1.729733e+00 5.010892e-03 0
1.724583e+00 5.846381e-03 0
1.718580e+00 6.809816e-03 0
1.711590e+00 7.918805e-03 0
1.703466e+00 9.187236e-03 0
1.694043e+00 1.061653e-02 0
1.683161e+00 1.217813e-02 0
1.670701e+00 1.378311e-02 0
1.656661e+00 1.524000e-02 0
1.641288e+00 1.622243e-02 0
1.625255e+00 1.631720e-02 0
1.609738e+00 1.525720e-02 0
1.596034e+00 1.322275e-02 0
1.584812e+00 1.073128e-02 0
1.576116e+00 8.257941e-03 0
1.569651e+00 6.078212e-03 0
1.565006e+00 4.290038e-03 0
1.561783e+00 2.885317e-03 0
1.559642e+00 1.807427e-03 0
1.558316e+00 9.811112e-04 0
1.557605e+00 2.841330e-04 0
1.557356e+00 -3.438167e-04 0
1.557473e+00 -8.542344e-04 0
1.557863e+00 -1.226170e-03 0
1.558442e+00 -1.474093e-03 0
1.559138e+00 -1.615864e-03 0
1.559892e+00 -1.669632e-03 0
1.560655e+00 -1.652253e-03 0
1.561388e+00 -1.578646e-03 0
1.562061e+00 -1.461648e-03 0
1.562651e+00 -1.312115e-03 0
1.563139e+00 -1.139100e-03 0
1.563515e+00 -9.499638e-04 0
1.563770e+00 -7.499901e-04 0
1.563901e+00 -5.425874e-04 0
1.563913e+00 -3.342391e-04 0
1.563823e+00 -1.436898e-04 0
1.563639e+00 -4.572297e-07 0
1.563370e+00 1.000030e-04 0
1.563023e+00 1.839545e-04 0
1.562604e+00 2.591981e-04 0
1.562120e+00 3.284764e-04 0
1.561573e+00 3.929733e-04 0
1.560969e+00 4.533186e-04 0
1.560310e+00 5.099142e-04 0
1.559600e+00 5.630511e-04 0
1.558842e+00 6.129556e-04 0
1.558038e+00 6.598104e-04 0
1.557192e+00 7.037690e-04 0
1.556306e+00 7.449679e-04 0
1.555382e+00 7.835355e-04 0
1.554423e+00 8.195983e-04 0
1.553431e+00 8.532828e-04 0
1.552408e+00 8.847141e-04 0
1.551356e+00 9.140132e-04 0
1.550277e+00 9.412933e-04 0
1.549172e+00 9.666570e-04 0
1.548045e+00 9.901958e-04 0
1.546895e+00 1.011993e-03 0
1.545725e+00 1.032131e-03 0
1.544536e+00 1.050691e-03 0
1.543330e+00 1.067760e-03 0
1.542108e+00 1.083426e-03 0
1.540870e+00 1.097770e-03 0
1.539619e+00 1.110861e-03 0
1.538356e+00 1.122758e-03 0
1.537081e+00 1.133517e-03 0
1.535795e+00 1.143193e-03 0
1.534500e+00 1.151849e-03 0
1.533196e+00 1.159544e-03 0
1.531885e+00 1.166335e-03 0
1.530566e+00 1.172267e-03 0
1.529241e+00 1.177380e-03 0
1.527911e+00 1.181711e-03 0
1.526577e+00 1.185302e-03 0
1.525238e+00 1.188198e-03 0
1.523895e+00 1.190441e-03 0
1.522550e+00 1.192070e-03 0
1.521202e+00 1.193115e-03 0
1.519853e+00 1.193599e-03 0
1.518503e+00 1.193545e-03 0
1.517151e+00 1.192975e-03 0
1.515799e+00 1.191921e-03 0
1.514448e+00 1.190414e-03 0
1.513097e+00 1.188483e-03 0
1.511747e+00 1.186150e-03 0
1.510398e+00 1.183430e-03 0
1.509050e+00 1.180335e-03 0
1.507705e+00 1.176878e-03 0
1.506362e+00 1.173076e-03 0
1.505022e+00 1.168949e-03 0
1.503685e+00 1.164513e-03 0
1.502351e+00 1.159783e-03 0
1.501020e+00 1.154769e-03 0
1.499693e+00 1.149479e-03 0
1.498370e+00 1.143923e-03 0
1.497052e+00 1.138109e-03 0
1.495738e+00 1.132047e-03 0
1.494428e+00 1.125747e-03 0
1.493124e+00 1.119215e-03 0
1.491825e+00 1.112457e-03 0
1.490531e+00 1.105477e-03 0
1.489243e+00 1.098278e-03 0
1.487961e+00 1.090863e-03 0
1.486685e+00 1.083236e-03 0
1.485415e+00 1.075401e-03 0
1.484151e+00 1.067360e-03 0
1.482895e+00 1.059118e-03 0
1.481645e+00 1.050673e-03 0
1.480402e+00 1.042027e-03 0
1.479166e+00 1.033179e-03 0
1.477938e+00 1.024128e-03 0
1.476718e+00 1.014872e-03 0
1.475505e+00 1.005410e-03 0
1.474301e+00 9.957405e-04 0
1.473105e+00 9.858609e-04 0
1.471917e+00 9.757684e-04 0
1.470738e+00 9.654589e-04 0
1.469568e+00 9.549260e-04 0
1.468407e+00 9.441608e-04 0
1.467256e+00 9.331517e-04 0
1.466114e+00 9.218824e-04 0
1.464982e+00 9.103310e-04 0
1.463861e+00 8.984653e-04 0
1.462749e+00 8.862392e-04 0
1.461649e+00 8.735857e-04 0
1.460560e+00 8.604055e-04 0
1.459483e+00 8.465483e-04 0
1.458419e+00 8.317845e-04 0
1.457369e+00 8.157472e-04 0
1.456333e+00 7.978269e-04 0
1.455315e+00 7.769303e-04 0
1.454317e+00 7.506829e-04 0
1.453344e+00 7.146562e-04 0
1.452407e+00 6.267852e-04 0
1.451518e+00 7.176396e-04 0
1.451518e+00 8.752154e-04 0
2.742722e+00 -8.717055e-05 0
2.742722e+00 -8.428996e-05 0
2.742755e+00 -6.602157e-05 0
2.742776e+00 -2.418097e-05 0
2.742777e+00 3.998997e-05 0
2.742747e+00 1.276371e-04 0
2.742675e+00 2.410860e-04 0
2.742549e+00 3.833521e-04 0
2.742358e+00 5.579537e-04 0
2.742087e+00 7.689122e-04 0
2.741719e+00 1.020771e-03 0
2.741235e+00 1.318657e-03 0
2.740616e+00 1.668377e-03 0
2.739839e+00 2.076472e-03 0
2.738876e+00 2.550346e-03 0
2.737698e+00 3.098412e-03 0
2.736274e+00 3.730233e-03 0
2.734564e+00 4.456899e-03 0
2.732527e+00 5.291460e-03 0
2.730114e+00 6.249417e-03 0
2.727271e+00 7.349408e-03 0
2.723933e+00 8.613876e-03 0
2.720027e+00 1.006967e-02 0
2.715467e+00 1.174840e-02 0
2.710149e+00 1.368603e-02 0
2.703952e+00 1.592031e-02 0
2.696733e+00 1.848382e-02 0
2.688320e+00 2.138737e-02 0
2.678519e+00 2.458566e-02 0
2.667127e+00 2.791291e-02 0
2.653990e+00 3.098187e-02 0
2.639150e+00 3.308102e-02 0
2.623194e+00 3.323366e-02 0
2.607701e+00 3.077996e-02 0
2.594726e+00 2.625562e-02 0
2.584799e+00 2.098072e-02 0
2.577558e+00 1.596946e-02 0
2.572407e+00 1.170204e-02 0
2.568805e+00 8.287041e-03 0
2.566328e+00 5.650139e-03 0
2.564667e+00 3.652486e-03 0
2.563593e+00 2.146619e-03 0
2.562937e+00 1.011071e-03 0
2.562517e+00 1.384226e-04 0
2.562222e+00 -5.338852e-04 0
2.562006e+00 -1.020189e-03 0
2.561837e+00 -1.342866e-03 0
2.561693e+00 -1.527255e-03 0
2.561556e+00 -1.597663e-03 0
2.561412e+00 -1.575968e-03 0
2.561252e+00 -1.481247e-03 0
2.561067e+00 -1.329840e-03 0
2.560850e+00 -1.135623e-03 0
2.560597e+00 -9.104064e-04 0
2.560304e+00 -6.644345e-04 0
2.559970e+00 -4.058899e-04 0
2.559604e+00 -1.506235e-04 0
2.559210e+00 8.186289e-05 0
2.558790e+00 2.886862e-04 0
2.558335e+00 4.772056e-04 0
2.557821e+00 6.496062e-04 0
2.557246e+00 8.066279e-04 0
2.556611e+00 9.513942e-04 0
2.555919e+00 1.086127e-03 0
2.555173e+00 1.212222e-03 0
2.554377e+00 1.330595e-03 0
2.553532e+00 1.441887e-03 0
2.552642e+00 1.546590e-03 0
2.551709e+00 1.645098e-03 0
2.550736e+00 1.737744e-03 0
2.549724e+00 1.824822e-03 0
2.548677e+00 1.906602e-03 0
2.547596e+00 1.983339e-03 0
2.546483e+00 2.055279e-03 0
2.545340e+00 2.122660e-03 0
2.544169e+00 2.185714e-03 0
2.542971e+00 2.244662e-03 0
2.541749e+00 2.299714e-03 0
2.540503e+00 2.351061e-03 0
2.539236e+00 2.398884e-03 0
2.537948e+00 2.443351e-03 0
2.536642e+00 2.484628e-03 0
2.535317e+00 2.522880e-03 0
2.533976e+00 2.558269e-03 0
2.532619e+00 2.590951e-03 0
2.531248e+00 2.621071e-03 0
2.529864e+00 2.648757e-03 0
2.528467e+00 2.674129e-03 0
2.527059e+00 2.697303e-03 0
2.525640e+00 2.718393e-03 0
2.524212e+00 2.737514e-03 0
2.522774e+00 2.754776e-03 0
2.521329e+00 2.770276e-03 0
2.519875e+00 2.784102e-03 0
2.518415e+00 2.796337e-03 0
2.516949e+00 2.807061e-03 0
2.515477e+00 2.816354e-03 0
2.514000e+00 2.824298e-03 0
2.512519e+00 2.830967e-03 0
2.511033e+00 2.836429e-03 0
2.509544e+00 2.840739e-03 0
2.508052e+00 2.843950e-03 0
2.506558e+00 2.846112e-03 0
2.505061e+00 2.847277e-03 0
2.503563e+00 2.847499e-03 0
2.502063e+00 2.846832e-03 0
2.500562e+00 2.845321e-03 0
2.499061e+00 2.843006e-03 0
2.497559e+00 2.839918e-03 0
2.496057e+00 2.836087e-03 0
2.494556e+00 2.831545e-03 0
2.493055e+00 2.826325e-03 0
2.491555e+00 2.820458e-03 0
2.490056e+00 2.813972e-03 0
2.488558e+00 2.806893e-03 0
2.487062e+00 2.799240e-03 0
2.485569e+00 2.791033e-03 0
2.484077e+00 2.782290e-03 0
2.482587e+00 2.773028e-03 0
2.481100e+00 2.763265e-03 0
2.479616e+00 2.753014e-03 0
2.478135e+00 2.742288e-03 0
2.476658e+00 2.731097e-03 0
2.475183e+00 2.719450e-03 0
2.473712e+00 2.707353e-03 0
2.472245e+00 2.694814e-03 0
2.470782e+00 2.681839e-03 0
2.469324e+00 2.668434e-03 0
2.467869e+00 2.654602e-03 0
2.466420e+00 2.640348e-03 0
2.464975e+00 2.625670e-03 0
2.463535e+00 2.610571e-03 0
2.462100e+00 2.595047e-03 0
2.460670e+00 2.579098e-03 0
2.459246e+00 2.562720e-03 0
2.457828e+00 2.545910e-03 0
2.456416e+00 2.528663e-03 0
2.455010e+00 2.510975e-03 0
2.453610e+00 2.492839e-03 0
2.452217e+00 2.474244e-03 0
2.450830e+00 2.455178e-03 0
2.449451e+00 2.435622e-03 0
2.448079e+00 2.415553e-03 0
2.446714e+00 2.394939e-03 0
2.445357e+00 2.373734e-03 0
2.444007e+00 2.351876e-03 0
2.442667e+00 2.329273e-03 0
2.441334e+00 2.305790e-03 0
2.440011e+00 2.281232e-03 0
2.438697e+00 2.255304e-03 0
2.437393e+00 2.227558e-03 0
2.436100e+00 2.197293e-03 0
2.434819e+00 2.163379e-03 0
2.433551e+00 2.123904e-03 0
2.432298e+00 2.075525e-03 0
2.431061e+00 2.012070e-03 0
2.429841e+00 1.923993e-03 0
2.428603e+00 1.906746e-03 0
2.428603e+00 1.941068e-03 0
3.268920e+00 -1.324485e-04 0
3.268920e+00 -1.259337e-04 0
3.268960e+00 -9.833491e-05 0
3.268991e+00 -4.126521e-05 0
3.269007e+00 4.644330e-05 0
3.269002e+00 1.669437e-04 0
3.268967e+00 3.233646e-04 0
3.268895e+00 5.197420e-04 0
3.268776e+00 7.609135e-04 0
3.268599e+00 1.052476e-03 0
3.268353e+00 1.400798e-03 0
3.268024e+00 1.813085e-03 0
3.267597e+00 2.297429e-03 0
3.267053e+00 2.862916e-03 0
3.266375e+00 3.519769e-03 0
3.265540e+00 4.279485e-03 0
3.264524e+00 5.155196e-03 0
3.263300e+00 6.162112e-03 0
3.261837e+00 7.318071e-03 0
3.260101e+00 8.644334e-03 0
3.258054e+00 1.016649e-02 0
3.255650e+00 1.191549e-02 0
3.252838e+00 1.392888e-02 0
3.249556e+00 1.625196e-02 0
3.245731e+00 1.893867e-02 0
3.241270e+00 2.205086e-02 0
3.236051e+00 2.565368e-02 0
3.229907e+00 2.980139e-02 0
3.222597e+00 3.450019e-02 0
3.213760e+00 3.962055e-02 0
3.202881e+00 4.470930e-02 0
3.189363e+00 4.866070e-02 0
3.173127e+00 4.944437e-02 0
3.156646e+00 4.524416e-02 0
3.144793e+00 3.734600e-02 0
3.137317e+00 2.881437e-02 0
3.132784e+00 2.131043e-02 0
3.130031e+00 1.529828e-02 0
3.128339e+00 1.069366e-02 0
3.127291e+00 7.244393e-03 0
3.126650e+00 4.688118e-03 0
3.126269e+00 2.802792e-03 0
3.126048e+00 1.417387e-03 0
3.125918e+00 4.091119e-04 0
3.125811e+00 -3.155259e-04 0
3.125696e+00 -8.204553e-04 0
3.125560e+00 -1.144052e-03 0
3.125398e+00 -1.319206e-03 0
3.125208e+00 -1.374039e-03 0
3.124992e+00 -1.332487e-03 0
3.124748e+00 -1.214841e-03 0
3.124478e+00 -1.038225e-03 0
3.124183e+00 -8.170485e-04 0
3.123863e+00 -5.636663e-04 0
3.123519e+00 -2.898222e-04 0
3.123156e+00 -1.294842e-05 0
3.122775e+00 2.576196e-04 0
3.122369e+00 5.230835e-04 0
3.121925e+00 7.787820e-04 0
3.121439e+00 1.020387e-03 0
3.120910e+00 1.246949e-03 0
3.120337e+00 1.458660e-03 0
3.119720e+00 1.656799e-03 0
3.119060e+00 1.842715e-03 0
3.118358e+00 2.017523e-03 0
3.117618e+00 2.182102e-03 0
3.116841e+00 2.337147e-03 0
3.116028e+00 2.483234e-03 0
3.115182e+00 2.620850e-03 0
3.114305e+00 2.750427e-03 0
3.113397e+00 2.872360e-03 0
3.112462e+00 2.987015e-03 0
3.111500e+00 3.094744e-03 0
3.110513e+00 3.195882e-03 0
3.109503e+00 3.290757e-03 0
3.108470e+00 3.379679e-03 0
3.107416e+00 3.462948e-03 0
3.106343e+00 3.540846e-03 0
3.105252e+00 3.613636e-03 0
3.104143e+00 3.681568e-03 0
3.103017e+00 3.744879e-03 0
3.101877e+00 3.803802e-03 0
3.100722e+00 3.858565e-03 0
3.099554e+00 3.909389e-03 0
3.098373e+00 3.956483e-03 0
3.097181e+00 4.000039e-03 0
3.095978e+00 4.040234e-03 0
3.094764e+00 4.077236e-03 0
3.093541e+00 4.111209e-03 0
3.092309e+00 4.142313e-03 0
3.091070e+00 4.170704e-03 0
3.089822e+00 4.196525e-03 0
3.088568e+00 4.219909e-03 0
3.087307e+00 4.240979e-03 0
3.086040e+00 4.259849e-03 0
3.084768e+00 4.276635e-03 0
3.083490e+00 4.291448e-03 0
3.082208e+00 4.304395e-03 0
3.080922e+00 4.315575e-03 0
3.079633e+00 4.325076e-03 0
3.078339e+00 4.332977e-03 0
3.077043e+00 4.339354e-03 0
3.075744e+00 4.344278e-03 0
3.074443e+00 4.347825e-03 0
3.073140e+00 4.350067e-03 0
3.071835e+00 4.351072e-03 0
3.070529e+00 4.350900e-03 0
3.069221e+00 4.349600e-03 0
3.067912e+00 4.347221e-03 0
3.066603e+00 4.343807e-03 0
3.065293e+00 4.339404e-03 0
3.063983e+00 4.334056e-03 0
3.062674e+00 4.327805e-03 0
3.061364e+00 4.320686e-03 0
3.060054e+00 4.312731e-03 0
3.058746e+00 4.303971e-03 0
3.057438e+00 4.294432e-03 0
3.056130e+00 4.284141e-03 0
3.054825e+00 4.273122e-03 0
3.053520e+00 4.261394e-03 0
3.052217e+00 4.248978e-03 0
3.050915e+00 4.235887e-03 0
3.049616e+00 4.222137e-03 0
3.048318e+00 4.207740e-03 0
3.047022e+00 4.192705e-03 0
3.045729e+00 4.177042e-03 0
3.044438e+00 4.160761e-03 0
3.043150e+00 4.143866e-03 0
3.041864e+00 4.126364e-03 0
3.040582e+00 4.108256e-03 0
3.039302e+00 4.089542e-03 0
3.038026e+00 4.070222e-03 0
3.036753e+00 4.050294e-03 0
3.035483e+00 4.029756e-03 0
3.034217e+00 4.008603e-03 0
3.032955e+00 3.986830e-03 0
3.031697e+00 3.964432e-03 0
3.030443e+00 3.941399e-03 0
3.029193e+00 3.917722e-03 0
3.027948e+00 3.893387e-03 0
3.026707e+00 3.868375e-03 0
3.025471e+00 3.842664e-03 0
3.024241e+00 3.816222e-03 0
3.023015e+00 3.789008e-03 0
3.021794e+00 3.760963e-03 0
3.020580e+00 3.732007e-03 0
3.019370e+00 3.702022e-03 0
3.018167e+00 3.670841e-03 0
3.016970e+00 3.638219e-03 0
3.015779e+00 3.603799e-03 0
3.014595e+00 3.567047e-03 0
3.013418e+00 3.527167e-03 0
3.012248e+00 3.482955e-03 0
3.011085e+00 3.432606e-03 0
3.009929e+00 3.373492e-03 0
3.008778e+00 3.302301e-03 0
3.007627e+00 3.215889e-03 0
3.006466e+00 3.133723e-03 0
3.006466e+00 3.098914e-03 0
3.554371e+00 -1.829504e-04 0
3.554371e+00 -1.744431e-04 0
3.554420e+00 -1.410730e-04 0
3.554463e+00 -7.404296e-05 0
3.554497e+00 2.864661e-05 0
3.554518e+00 1.698877e-04 0
3.554522e+00 3.536979e-04 0
3.554503e+00 5.849451e-04 0
3.554456e+00 8.694826e-04 0
3.554372e+00 1.214098e-03 0
3.554243e+00 1.626530e-03 0
3.554061e+00 2.115479e-03 0
3.553814e+00 2.690666e-03 0
3.553491e+00 3.362918e-03 0
3.553077e+00 4.144263e-03 0
3.552559e+00 5.048185e-03 0
3.551920e+00 6.089986e-03 0
3.551141e+00 7.287257e-03 0
3.550204e+00 8.660597e-03 0
3.549086e+00 1.023448e-02 0
3.547765e+00 1.203840e-02 0
3.546215e+00 1.410826e-02 0
3.544405e+00 1.648834e-02 0
3.542301e+00 1.923385e-02 0
3.539861e+00 2.241408e-02 0
3.537027e+00 2.611659e-02 0
3.533715e+00 3.045221e-02 0
3.529788e+00 3.555870e-02 0
3.524995e+00 4.159382e-02 0
3.518853e+00 4.868121e-02 0
3.510385e+00 5.668099e-02 0
3.497702e+00 6.442188e-02 0
3.477892e+00 6.769534e-02 0
3.454586e+00 6.062538e-02 0
3.443563e+00 4.661509e-02 0
3.439606e+00 3.362955e-02 0
3.438651e+00 2.364392e-02 0
3.438792e+00 1.638451e-02 0
3.439260e+00 1.117365e-02 0
3.439771e+00 7.429296e-03 0
3.440230e+00 4.729498e-03 0
3.440612e+00 2.780920e-03 0
3.440910e+00 1.380579e-03 0
3.441122e+00 3.875305e-04 0
3.441255e+00 -3.002055e-04 0
3.441308e+00 -7.557037e-04 0
3.441288e+00 -1.028810e-03 0
3.441203e+00 -1.156931e-03 0
3.441062e+00 -1.169594e-03 0
3.440873e+00 -1.090798e-03 0
3.440643e+00 -9.403667e-04 0
3.440379e+00 -7.347700e-04 0
3.440086e+00 -4.873813e-04 0
3.439767e+00 -2.111864e-04 0
3.439427e+00 7.948294e-05 0
3.439067e+00 3.776066e-04 0
3.438680e+00 6.792903e-04 0
3.438265e+00 9.777113e-04 0
3.437822e+00 1.267789e-03 0
3.437349e+00 1.545942e-03 0
3.436845e+00 1.810413e-03 0
3.436309e+00 2.060659e-03 0
3.435742e+00 2.296981e-03 0
3.435143e+00 2.520039e-03 0
3.434514e+00 2.730569e-03 0
3.433856e+00 2.929274e-03 0
3.433170e+00 3.116793e-03 0
3.432458e+00 3.293696e-03 0
3.431720e+00 3.460505e-03 0
3.430959e+00 3.617703e-03 0
3.430176e+00 3.765744e-03 0
3.429371e+00 3.905062e-03 0