<?xml version="1.0"?>
<VTKFile type="StructuredGrid">
<StructuredGrid WholeExtent="0 158 0 30 0 0 ">
<Piece Extent="0 158 0 30 0 0 ">
<Points>
<DataArray type="Float64" format="ascii" NumberOfComponents="3">
0.000000e+00 0.000000e+00 0.000000e+00
3.164557e-02 0.000000e+00 0.000000e+00
6.329114e-02 0.000000e+00 0.000000e+00
9.493671e-02 0.000000e+00 0.000000e+00
1.265823e-01 0.000000e+00 0.000000e+00
1.582278e-01 0.000000e+00 0.000000e+00
1.898734e-01 0.000000e+00 0.000000e+00
2.215190e-01 0.000000e+00 0.000000e+00
2.531646e-01 0.000000e+00 0.000000e+00
2.848101e-01 0.000000e+00 0.000000e+00
3.164557e-01 0.000000e+00 0.000000e+00
3.481013e-01 0.000000e+00 0.000000e+00
3.797468e-01 0.000000e+00 0.000000e+00
4.113924e-01 0.000000e+00 0.000000e+00
4.430380e-01 0.000000e+00 0.000000e+00
4.746835e-01 0.000000e+00 0.000000e+00
5.063291e-01 0.000000e+00 0.000000e+00
5.379747e-01 0.000000e+00 0.000000e+00
5.696203e-01 0.000000e+00 0.000000e+00
6.012658e-01 0.000000e+00 0.000000e+00
6.329114e-01 0.000000e+00 0.000000e+00
6.645570e-01 0.000000e+00 0.000000e+00
6.962025e-01 0.000000e+00 0.000000e+00
7.278481e-01 0.000000e+00 0.000000e+00
7.594937e-01 0.000000e+00 0.000000e+00
7.911392e-01 0.000000e+00 0.000000e+00
8.227848e-01 0.000000e+00 0.000000e+00
8.544304e-01 0.000000e+00 0.000000e+00
8.860759e-01 0.000000e+00 0.000000e+00
9.177215e-01 0.000000e+00 0.000000e+00
9.493671e-01 0.000000e+00 0.000000e+00
9.810127e-01 0.000000e+00 0.000000e+00
1.012658e+00 0.000000e+00 0.000000e+00
1.044304e+00 0.000000e+00 0.000000e+00
1.075949e+00 0.000000e+00 0.000000e+00
1.107595e+00 0.000000e+00 0.000000e+00
1.139241e+00 0.000000e+00 0.000000e+00
1.170886e+00 0.000000e+00 0.000000e+00
1.202532e+00 0.000000e+00 0.000000e+00
1.234177e+00 0.000000e+00 0.000000e+00
1.265823e+00 0.000000e+00 0.000000e+00
1.297468e+00 0.000000e+00 0.000000e+00
1.329114e+00 0.000000e+00 0.000000e+00
1.360759e+00 0.000000e+00 0.000000e+00
1.392405e+00 0.000000e+00 0.000000e+00
1.424051e+00 0.000000e+00 0.000000e+00
1.455696e+00 0.000000e+00 0.000000e+00
1.487342e+00 0.000000e+00 0.000000e+00
1.518987e+00 0.000000e+00 0.000000e+00
1.550633e+00 0.000000e+00 0.000000e+00
1.582278e+00 0.000000e+00 0.000000e+00
1.613924e+00 0.000000e+00 0.000000e+00
1.645570e+00 0.000000e+00 0.000000e+00
1.677215e+00 0.000000e+00 0.000000e+00
1.708861e+00 0.000000e+00 0.000000e+00
1.740506e+00 0.000000e+00 0.000000e+00
1.772152e+00 0.000000e+00 0.000000e+00
1.803797e+00 0.000000e+00 0.000000e+00
1.835443e+00 0.000000e+00 0.000000e+00
1.867089e+00 0.000000e+00 0.000000e+00
1.898734e+00 0.000000e+00 0.000000e+00
1.930380e+00 0.000000e+00 0.000000e+00
1.962025e+00 0.000000e+00 0.000000e+00
1.993671e+00 0.000000e+00 0.000000e+00
2.025316e+00 0.000000e+00 0.000000e+00
2.056962e+00 0.000000e+00 0.000000e+00
2.088608e+00 0.000000e+00 0.000000e+00
2.120253e+00 0.000000e+00 0.000000e+00
2.151899e+00 0.000000e+00 0.000000e+00
2.183544e+00 0.000000e+00 0.000000e+00
2.215190e+00 0.000000e+00 0.000000e+00
2.246835e+00 0.000000e+00 0.000000e+00
2.278481e+00 0.000000e+00 0.000000e+00
2.310127e+00 0.000000e+00 0.000000e+00
2.341772e+00 0.000000e+00 0.000000e+00
2.373418e+00 0.000000e+00 0.000000e+00
2.405063e+00 0.000000e+00 0.000000e+00
2.436709e+00 0.000000e+00 0.000000e+00
2.468354e+00 0.000000e+00 0.000000e+00
2.500000e+00 0.000000e+00 0.000000e+00
2.531646e+00 0.000000e+00 0.000000e+00
2.563291e+00 0.000000e+00 0.000000e+00
2.594937e+00 0.000000e+00 0.000000e+00
2.626582e+00 0.000000e+00 0.000000e+00
2.658228e+00 0.000000e+00 0.000000e+00
2.689873e+00 0.000000e+00 0.000000e+00
2.721519e+00 0.000000e+00 0.000000e+00
2.753165e+00 0.000000e+00 0.000000e+00
2.784810e+00 0.000000e+00 0.000000e+00
2.816456e+00 0.000000e+00 0.000000e+00
2.848101e+00 0.000000e+00 0.000000e+00
2.879747e+00 0.000000e+00 0.000000e+00
2.911392e+00 0.000000e+00 0.000000e+00
2.943038e+00 0.000000e+00 0.000000e+00
2.974684e+00 0.000000e+00 0.000000e+00
3.006329e+00 0.000000e+00 0.000000e+00
3.037975e+00 0.000000e+00 0.000000e+00
3.069620e+00 0.000000e+00 0.000000e+00
3.101266e+00 0.000000e+00 0.000000e+00
3.132911e+00 0.000000e+00 0.000000e+00
3.164557e+00 0.000000e+00 0.000000e+00
3.196203e+00 0.000000e+00 0.000000e+00
3.227848e+00 0.000000e+00 0.000000e+00
3.259494e+00 0.000000e+00 0.000000e+00
3.291139e+00 0.000000e+00 0.000000e+00
3.322785e+00 0.000000e+00 0.000000e+00
3.354430e+00 0.000000e+00 0.000000e+00
3.386076e+00 0.000000e+00 0.000000e+00
3.417722e+00 0.000000e+00 0.000000e+00
3.449367e+00 0.000000e+00 0.000000e+00
3.481013e+00 0.000000e+00 0.000000e+00
3.512658e+00 0.000000e+00 0.000000e+00
3.544304e+00 0.000000e+00 0.000000e+00
3.575949e+00 0.000000e+00 0.000000e+00
3.607595e+00 0.000000e+00 0.000000e+00
3.639241e+00 0.000000e+00 0.000000e+00
3.670886e+00 0.000000e+00 0.000000e+00
3.702532e+00 0.000000e+00 0.000000e+00
3.734177e+00 0.000000e+00 0.000000e+00
3.765823e+00 0.000000e+00 0.000000e+00
3.797468e+00 0.000000e+00 0.000000e+00
3.829114e+00 0.000000e+00 0.000000e+00
3.860759e+00 0.000000e+00 0.000000e+00
3.892405e+00 0.000000e+00 0.000000e+00
3.924051e+00 0.000000e+00 0.000000e+00
3.955696e+00 0.000000e+00 0.000000e+00
3.987342e+00 0.000000e+00 0.000000e+00
4.018987e+00 0.000000e+00 0.000000e+00
4.050633e+00 0.000000e+00 0.000000e+00
4.082278e+00 0.000000e+00 0.000000e+00
4.113924e+00 0.000000e+00 0.000000e+00
4.145570e+00 0.000000e+00 0.000000e+00
4.177215e+00 0.000000e+00 0.000000e+00
4.208861e+00 0.000000e+00 0.000000e+00
4.240506e+00 0.000000e+00 0.000000e+00
4.272152e+00 0.000000e+00 0.000000e+00
4.303797e+00 0.000000e+00 0.000000e+00
4.335443e+00 0.000000e+00 0.000000e+00
4.367089e+00 0.000000e+00 0.000000e+00
4.398734e+00 0.000000e+00 0.000000e+00
4.430380e+00 0.000000e+00 0.000000e+00
4.462025e+00 0.000000e+00 0.000000e+00
4.493671e+00 0.000000e+00 0.000000e+00
4.525316e+00 0.000000e+00 0.000000e+00
4.556962e+00 0.000000e+00 0.000000e+00
4.588608e+00 0.000000e+00 0.000000e+00
4.620253e+00 0.000000e+00 0.000000e+00
4.651899e+00 0.000000e+00 0.000000e+00
4.683544e+00 0.000000e+00 0.000000e+00
4.715190e+00 0.000000e+00 0.000000e+00
4.746835e+00 0.000000e+00 0.000000e+00
4.778481e+00 0.000000e+00 0.000000e+00
4.810127e+00 0.000000e+00 0.000000e+00
4.841772e+00 0.000000e+00 0.000000e+00
4.873418e+00 0.000000e+00 0.000000e+00
4.905063e+00 0.000000e+00 0.000000e+00
4.936709e+00 0.000000e+00 0.000000e+00
4.968354e+00 0.000000e+00 0.000000e+00
5.000000e+00 0.000000e+00 0.000000e+00
0.000000e+00 3.333333e-02 0.000000e+00
3.164557e-02 3.333333e-02 0.000000e+00
6.329114e-02 3.333333e-02 0.000000e+00
9.493671e-02 3.333333e-02 0.000000e+00
1.265823e-01 3.333333e-02 0.000000e+00
1.582278e-01 3.333333e-02 0.000000e+00
1.898734e-01 3.333333e-02 0.000000e+00
2.215190e-01 3.333333e-02 0.000000e+00
2.531646e-01 3.333333e-02 0.000000e+00
2.848101e-01 3.333333e-02 0.000000e+00
3.164557e-01 3.333333e-02 0.000000e+00
3.481013e-01 3.333333e-02 0.000000e+00
3.797468e-01 3.333333e-02 0.000000e+00
4.113924e-01 3.333333e-02 0.000000e+00
4.430380e-01 3.333333e-02 0.000000e+00
4.746835e-01 3.333333e-02 0.000000e+00
5.063291e-01 3.333333e-02 0.000000e+00
5.379747e-01 3.333333e-02 0.000000e+00
5.696203e-01 3.333333e-02 0.000000e+00
6.012658e-01 3.333333e-02 0.000000e+00
6.329114e-01 3.333333e-02 0.000000e+00
6.645570e-01 3.333333e-02 0.000000e+00
6.962025e-01 3.333333e-02 0.000000e+00
7.278481e-01 3.333333e-02 0.000000e+00
7.594937e-01 3.333333e-02 0.000000e+00
7.911392e-01 3.333333e-02 0.000000e+00
8.227848e-01 3.333333e-02 0.000000e+00
8.544304e-01 3.333333e-02 0.000000e+00
8.860759e-01 3.333333e-02 0.000000e+00
9.177215e-01 3.333333e-02 0.000000e+00
9.493671e-01 3.333333e-02 0.000000e+00
9.810127e-01 3.333333e-02 0.000000e+00
1.012658e+00 3.333333e-02 0.000000e+00
1.044304e+00 3.333333e-02 0.000000e+00
1.075949e+00 3.333333e-02 0.000000e+00
1.107595e+00 3.333333e-02 0.000000e+00
1.139241e+00 3.333333e-02 0.000000e+00
1.170886e+00 3.333333e-02 0.000000e+00
1.202532e+00 3.333333e-02 0.000000e+00
1.234177e+00 3.333333e-02 0.000000e+00
1.265823e+00 3.333333e-02 0.000000e+00
1.297468e+00 3.333333e-02 0.000000e+00
1.329114e+00 3.333333e-02 0.000000e+00
1.360759e+00 3.333333e-02 0.000000e+00
1.392405e+00 3.333333e-02 0.000000e+00
1.424051e+00 3.333333e-02 0.000000e+00
1.455696e+00 3.333333e-02 0.000000e+00
1.487342e+00 3.333333e-02 0.000000e+00
1.518987e+00 3.333333e-02 0.000000e+00
1.550633e+00 3.333333e-02 0.000000e+00
1.582278e+00 3.333333e-02 0.000000e+00
1.613924e+00 3.333333e-02 0.000000e+00
1.645570e+00 3.333333e-02 0.000000e+00
1.677215e+00 3.333333e-02 0.000000e+00
1.708861e+00 3.333333e-02 0.000000e+00
1.740506e+00 3.333333e-02 0.000000e+00
1.772152e+00 3.333333e-02 0.000000e+00
1.803797e+00 3.333333e-02 0.000000e+00
1.835443e+00 3.333333e-02 0.000000e+00
1.867089e+00 3.333333e-02 0.000000e+00
1.898734e+00 3.333333e-02 0.000000e+00
1.930380e+00 3.333333e-02 0.000000e+00
1.962025e+00 3.333333e-02 0.000000e+00
1.993671e+00 3.333333e-02 0.000000e+00
2.025316e+00 3.333333e-02 0.000000e+00
2.056962e+00 3.333333e-02 0.000000e+00
2.088608e+00 3.333333e-02 0.000000e+00
2.120253e+00 3.333333e-02 0.000000e+00
2.151899e+00 3.333333e-02 0.000000e+00
2.183544e+00 3.333333e-02 0.000000e+00
2.215190e+00 3.333333e-02 0.000000e+00
2.246835e+00 3.333333e-02 0.000000e+00
2.278481e+00 3.333333e-02 0.000000e+00
2.310127e+00 3.333333e-02 0.000000e+00
2.341772e+00 3.333333e-02 0.000000e+00
2.373418e+00 3.333333e-02 0.000000e+00
2.405063e+00 3.333333e-02 0.000000e+00
2.436709e+00 3.333333e-02 0.000000e+00
2.468354e+00 3.333333e-02 0.000000e+00
2.500000e+00 3.333333e-02 0.000000e+00
2.531646e+00 3.333333e-02 0.000000e+00
2.563291e+00 3.333333e-02 0.000000e+00
2.594937e+00 3.333333e-02 0.000000e+00
2.626582e+00 3.333333e-02 0.000000e+00
2.658228e+00 3.333333e-02 0.000000e+00
2.689873e+00 3.333333e-02 0.000000e+00
2.721519e+00 3.333333e-02 0.000000e+00
2.753165e+00 3.333333e-02 0.000000e+00
2.784810e+00 3.333333e-02 0.000000e+00
2.816456e+00 3.333333e-02 0.000000e+00
2.848101e+00 3.333333e-02 0.000000e+00
2.879747e+00 3.333333e-02 0.000000e+00
[...]
<PointData>
<DataArray Name="Velocity" type="Float64" format="ascii" NumberOfComponents="3">
0.000000e+00 0.000000e+00 0
0.000000e+00 0.000000e+00 0
0.000000e+00 0.000000e+00 0
0.000000e+00 0.000000e+00 0
0.000000e+00 0.000000e+00 0
0.000000e+00 0.000000e+00 0
0.000000e+00 0.000000e+00 0
0.000000e+00 0.000000e+00 0
0.000000e+00 0.000000e+00 0
0.000000e+00 0.000000e+00 0
0.000000e+00 0.000000e+00 0
0.000000e+00 0.000000e+00 0
0.000000e+00 0.000000e+00 0
0.000000e+00 0.000000e+00 0
0.000000e+00 0.000000e+00 0
0.000000e+00 0.000000e+00 0
0.000000e+00 0.000000e+00 0
0.000000e+00 0.000000e+00 0
0.000000e+00 0.000000e+00 0
-5.358069e-17 0.000000e+00 0
0.000000e+00 0.000000e+00 0
0.000000e+00 0.000000e+00 0
0.000000e+00 0.000000e+00 0
2.637971e-17 0.000000e+00 0
0.000000e+00 0.000000e+00 0
0.000000e+00 0.000000e+00 0
0.000000e+00 0.000000e+00 0
-2.999584e-17 0.000000e+00 0
0.000000e+00 0.000000e+00 0
0.000000e+00 0.000000e+00 0
0.000000e+00 0.000000e+00 0
-9.813772e-18 0.000000e+00 0
0.000000e+00 0.000000e+00 0
0.000000e+00 0.000000e+00 0
0.000000e+00 0.000000e+00 0
0.000000e+00 0.000000e+00 0
0.000000e+00 0.000000e+00 0
0.000000e+00 0.000000e+00 0
-3.686717e-18 0.000000e+00 0
0.000000e+00 0.000000e+00 0
0.000000e+00 0.000000e+00 0
0.000000e+00 0.000000e+00 0
0.000000e+00 0.000000e+00 0
0.000000e+00 0.000000e+00 0
0.000000e+00 0.000000e+00 0
0.000000e+00 0.000000e+00 0
-7.639259e-18 0.000000e+00 0
0.000000e+00 0.000000e+00 0
0.000000e+00 0.000000e+00 0
0.000000e+00 0.000000e+00 0
0.000000e+00 0.000000e+00 0
0.000000e+00 0.000000e+00 0
0.000000e+00 0.000000e+00 0
0.000000e+00 0.000000e+00 0
2.109126e-17 0.000000e+00 0
0.000000e+00 0.000000e+00 0
0.000000e+00 0.000000e+00 0
0.000000e+00 0.000000e+00 0
0.000000e+00 0.000000e+00 0
0.000000e+00 0.000000e+00 0
0.000000e+00 0.000000e+00 0
0.000000e+00 0.000000e+00 0
2.171508e-17 0.000000e+00 0
0.000000e+00 0.000000e+00 0
0.000000e+00 0.000000e+00 0
0.000000e+00 0.000000e+00 0
0.000000e+00 0.000000e+00 0
0.000000e+00 0.000000e+00 0
0.000000e+00 0.000000e+00 0
0.000000e+00 0.000000e+00 0
0.000000e+00 0.000000e+00 0
0.000000e+00 0.000000e+00 0
0.000000e+00 0.000000e+00 0
0.000000e+00 0.000000e+00 0
0.000000e+00 0.000000e+00 0
0.000000e+00 0.000000e+00 0
0.000000e+00 0.000000e+00 0
0.000000e+00 0.000000e+00 0
0.000000e+00 0.000000e+00 0
0.000000e+00 0.000000e+00 0
0.000000e+00 0.000000e+00 0
0.000000e+00 0.000000e+00 0
0.000000e+00 0.000000e+00 0
0.000000e+00 0.000000e+00 0
0.000000e+00 0.000000e+00 0
0.000000e+00 0.000000e+00 0
0.000000e+00 0.000000e+00 0
0.000000e+00 0.000000e+00 0
0.000000e+00 0.000000e+00 0
0.000000e+00 0.000000e+00 0
0.000000e+00 0.000000e+00 0
0.000000e+00 0.000000e+00 0
0.000000e+00 0.000000e+00 0
0.000000e+00 0.000000e+00 0
0.000000e+00 0.000000e+00 0
0.000000e+00 0.000000e+00 0
0.000000e+00 0.000000e+00 0
0.000000e+00 0.000000e+00 0
0.000000e+00 0.000000e+00 0
0.000000e+00 0.000000e+00 0
0.000000e+00 0.000000e+00 0
0.000000e+00 0.000000e+00 0
0.000000e+00 0.000000e+00 0
0.000000e+00 0.000000e+00 0
0.000000e+00 0.000000e+00 0
0.000000e+00 0.000000e+00 0
0.000000e+00 0.000000e+00 0
0.000000e+00 0.000000e+00 0
0.000000e+00 0.000000e+00 0
0.000000e+00 0.000000e+00 0
0.000000e+00 0.000000e+00 0
0.000000e+00 0.000000e+00 0
0.000000e+00 0.000000e+00 0
0.000000e+00 0.000000e+00 0
0.000000e+00 0.000000e+00 0
0.000000e+00 0.000000e+00 0
0.000000e+00 0.000000e+00 0
0.000000e+00 0.000000e+00 0
0.000000e+00 0.000000e+00 0
0.000000e+00 0.000000e+00 0
0.000000e+00 0.000000e+00 0
0.000000e+00 0.000000e+00 0
0.000000e+00 0.000000e+00 0
0.000000e+00 0.000000e+00 0
0.000000e+00 0.000000e+00 0
0.000000e+00 0.000000e+00 0
0.000000e+00 0.000000e+00 0
0.000000e+00 0.000000e+00 0
0.000000e+00 0.000000e+00 0
0.000000e+00 0.000000e+00 0
0.000000e+00 0.000000e+00 0
0.000000e+00 0.000000e+00 0
0.000000e+00 0.000000e+00 0
0.000000e+00 0.000000e+00 0
0.000000e+00 0.000000e+00 0
0.000000e+00 0.000000e+00 0
0.000000e+00 0.000000e+00 0
0.000000e+00 0.000000e+00 0
0.000000e+00 0.000000e+00 0
0.000000e+00 0.000000e+00 0
0.000000e+00 0.000000e+00 0
0.000000e+00 0.000000e+00 0
0.000000e+00 0.000000e+00 0
0.000000e+00 0.000000e+00 0
0.000000e+00 0.000000e+00 0
0.000000e+00 0.000000e+00 0
0.000000e+00 0.000000e+00 0
0.000000e+00 0.000000e+00 0
0.000000e+00 0.000000e+00 0
0.000000e+00 0.000000e+00 0
0.000000e+00 0.000000e+00 0
0.000000e+00 0.000000e+00 0
0.000000e+00 0.000000e+00 0
0.000000e+00 0.000000e+00 0
0.000000e+00 0.000000e+00 0
0.000000e+00 0.000000e+00 0
0.000000e+00 0.000000e+00 0
0.000000e+00 0.000000e+00 0
0.000000e+00 0.000000e+00 0
1.883264e+00 -3.157161e-05 0
1.883264e+00 -3.304170e-05 0
1.883290e+00 -2.690731e-05 0
1.883303e+00 -6.415186e-06 0
1.883293e+00 2.386692e-05 0
1.883250e+00 6.420279e-05 0
1.883163e+00 1.163561e-04 0
1.883020e+00 1.817869e-04 0
1.882808e+00 2.620573e-04 0
1.882511e+00 3.589396e-04 0
1.882114e+00 4.744478e-04 0
1.881597e+00 6.108438e-04 0
1.880939e+00 7.706745e-04 0
1.880117e+00 9.568166e-04 0
1.879105e+00 1.172508e-03 0
1.877871e+00 1.421415e-03 0
1.876384e+00 1.707731e-03 0
1.874605e+00 2.036306e-03 0
1.872491e+00 2.412833e-03 0
1.869994e+00 2.844098e-03 0
1.867057e+00 3.338221e-03 0
1.863618e+00 3.904930e-03 0
1.859601e+00 4.555813e-03 0
1.854920e+00 5.304413e-03 0
1.849475e+00 6.165889e-03 0
1.843149e+00 7.155718e-03 0
1.835810e+00 8.286251e-03 0
1.827314e+00 9.558928e-03 0
1.817521e+00 1.094887e-02 0
1.806324e+00 1.237790e-02 0
1.793721e+00 1.367655e-02 0
1.779931e+00 1.455492e-02 0
1.765552e+00 1.464449e-02 0
1.751630e+00 1.370578e-02 0
1.739321e+00 1.189839e-02 0
1.729218e+00 9.682933e-03 0
1.721365e+00 7.482563e-03 0
1.715497e+00 5.542710e-03 0
1.711251e+00 3.950903e-03 0
1.708272e+00 2.700644e-03 0
1.706256e+00 1.743324e-03 0
1.704964e+00 1.016674e-03 0
1.704215e+00 4.462158e-04 0
1.703875e+00 -6.879859e-05 0
1.703849e+00 -5.216652e-04 0
1.704064e+00 -8.543649e-04 0
1.704449e+00 -1.081613e-03 0
1.704945e+00 -1.218341e-03 0
1.705499e+00 -1.279423e-03 0
1.706069e+00 -1.278762e-03 0
1.706621e+00 -1.228791e-03 0
1.707128e+00 -1.140313e-03 0
1.707568e+00 -1.022529e-03 0
1.707927e+00 -8.831063e-04 0
1.708193e+00 -7.281620e-04 0
1.708358e+00 -5.624311e-04 0
1.708421e+00 -3.878924e-04 0
1.708391e+00 -2.159444e-04 0
1.708278e+00 -7.023709e-05 0
1.708089e+00 3.669906e-05 0
1.707829e+00 1.168130e-04 0
1.707504e+00 1.859896e-04 0
1.707120e+00 2.490054e-04 0
1.706679e+00 3.075773e-04 0
1.706186e+00 3.624470e-04 0
1.705644e+00 4.139998e-04 0
1.705055e+00 4.624833e-04 0
1.704422e+00 5.080932e-04 0
1.703747e+00 5.510022e-04 0
1.703034e+00 5.913618e-04 0
1.702283e+00 6.292973e-04 0
1.701499e+00 6.649093e-04 0
1.700681e+00 6.982833e-04 0
1.699834e+00 7.295039e-04 0
1.698957e+00 7.586652e-04 0
1.698054e+00 7.858722e-04 0
1.697126e+00 8.112342e-04 0
1.696175e+00 8.348542e-04 0
1.695202e+00 8.568213e-04 0
1.694208e+00 8.772101e-04 0
1.693196e+00 8.960862e-04 0
1.692166e+00 9.135146e-04 0
1.691120e+00 9.295645e-04 0
1.690059e+00 9.443096e-04 0
1.688984e+00 9.578237e-04 0
1.687896e+00 9.701766e-04 0
1.686796e+00 9.814318e-04 0
1.685686e+00 9.916464e-04 0
1.684566e+00 1.000873e-03 0
1.683437e+00 1.009161e-03 0
1.682300e+00 1.016557e-03 0
1.681156e+00 1.023106e-03 0
1.680005e+00 1.028849e-03 0
1.678848e+00 1.033828e-03 0
1.677687e+00 1.038085e-03 0
1.676521e+00 1.041661e-03 0
1.675351e+00 1.044598e-03 0
1.674177e+00 1.046933e-03 0
1.673001e+00 1.048699e-03 0
1.671823e+00 1.049922e-03 0
1.670643e+00 1.050625e-03 0
1.669462e+00 1.050831e-03 0
1.668280e+00 1.050562e-03 0
1.667098e+00 1.049847e-03 0
1.665916e+00 1.048712e-03 0
1.664734e+00 1.047184e-03 0
1.663553e+00 1.045285e-03 0
1.662373e+00 1.043031e-03 0
1.661194e+00 1.040438e-03 0
1.660017e+00 1.037517e-03 0
1.658843e+00 1.034283e-03 0
1.657670e+00 1.030750e-03 0
1.656501e+00 1.026933e-03 0
1.655334e+00 1.022847e-03 0
1.654170e+00 1.018506e-03 0
1.653010e+00 1.013921e-03 0
1.651853e+00 1.009102e-03 0
1.650700e+00 1.004055e-03 0
1.649551e+00 9.987843e-04 0
1.648406e+00 9.932972e-04 0
1.647266e+00 9.876003e-04 0
1.646130e+00 9.817019e-04 0
1.645000e+00 9.756096e-04 0
1.643874e+00 9.693297e-04 0
1.642753e+00 9.628663e-04 0
1.641638e+00 9.562217e-04 0
1.640529e+00 9.493975e-04 0
1.639425e+00 9.423954e-04 0
1.638327e+00 9.352175e-04 0
1.637235e+00 9.278658e-04 0
1.636149e+00 9.203424e-04 0
1.635070e+00 9.126486e-04 0
1.633998e+00 9.047851e-04 0
1.632932e+00 8.967523e-04 0
1.631873e+00 8.885497e-04 0
1.630821e+00 8.801763e-04 0
1.629777e+00 8.716307e-04 0
1.628739e+00 8.629110e-04 0
1.627710e+00 8.540147e-04 0
1.626688e+00 8.449388e-04 0
1.625675e+00 8.356788e-04 0
1.624669e+00 8.262285e-04 0
1.623672e+00 8.165790e-04 0
1.622683e+00 8.067176e-04 0
1.621703e+00 7.966255e-04 0
1.620732e+00 7.862757e-04 0
1.619771e+00 7.756289e-04 0
1.618819e+00 7.646270e-04 0
1.617877e+00 7.531831e-04 0
1.616945e+00 7.411663e-04 0
1.616025e+00 7.283733e-04 0
1.615116e+00 7.144809e-04 0
1.614221e+00 6.989470e-04 0
1.613341e+00 6.807955e-04 0
1.612478e+00 6.579085e-04 0
1.611638e+00 6.263103e-04 0
1.610828e+00 5.490830e-04 0
1.610062e+00 6.226442e-04 0
1.610062e+00 7.548333e-04 0
2.993363e+00 -6.276603e-05 0
2.993363e+00 -5.943813e-05 0
2.993387e+00 -4.164087e-05 0
2.993398e+00 -2.966176e-06 0
2.993390e+00 5.609330e-05 0
2.993352e+00 1.372502e-04 0
2.993275e+00 2.424713e-04 0
2.993148e+00 3.743389e-04 0
2.992960e+00 5.359300e-04 0
2.992696e+00 7.308090e-04 0
2.992342e+00 9.630277e-04 0
2.991881e+00 1.237158e-03 0
2.991295e+00 1.558344e-03 0
2.990562e+00 1.932360e-03 0
2.989657e+00 2.365700e-03 0
2.988556e+00 2.865718e-03 0
2.987227e+00 3.440824e-03 0
2.985637e+00 4.100770e-03 0
2.983747e+00 4.857027e-03 0
2.981515e+00 5.723224e-03 0
2.978891e+00 6.715667e-03 0
2.975818e+00 7.853968e-03 0
2.972230e+00 9.161590e-03 0
2.968051e+00 1.066618e-02 0
2.963188e+00 1.239923e-02 0
2.957535e+00 1.439394e-02 0
2.950963e+00 1.667900e-02 0
2.943323e+00 1.926414e-02 0
2.934443e+00 2.210963e-02 0
2.924144e+00 2.506921e-02 0
2.912290e+00 2.780027e-02 0
2.898925e+00 2.967098e-02 0
2.884570e+00 2.981100e-02 0
2.870635e+00 2.763103e-02 0
2.858948e+00 2.360700e-02 0
2.849982e+00 1.891343e-02 0
2.843415e+00 1.445283e-02 0
2.838718e+00 1.065284e-02 0
2.835409e+00 7.610814e-03 0
2.833110e+00 5.261863e-03 0
2.831544e+00 3.484453e-03 0
2.830508e+00 2.150757e-03 0
2.829853e+00 1.147093e-03 0
2.829452e+00 3.851192e-04 0
2.829164e+00 -1.984501e-04 0
2.828950e+00 -6.325635e-04 0
2.828782e+00 -9.285488e-04 0
2.828639e+00 -1.105721e-03 0
2.828504e+00 -1.183962e-03 0
2.828364e+00 -1.181594e-03 0
2.828211e+00 -1.114801e-03 0
2.828037e+00 -9.975745e-04 0
2.827835e+00 -8.418732e-04 0
2.827602e+00 -6.578537e-04 0
2.827334e+00 -4.540101e-04 0
2.827035e+00 -2.399081e-04 0
2.826709e+00 -3.480840e-05 0
2.826362e+00 1.499323e-04 0
2.825990e+00 3.184595e-04 0
2.825579e+00 4.735596e-04 0
2.825117e+00 6.160329e-04 0
2.824601e+00 7.471436e-04 0
2.824035e+00 8.690849e-04 0
2.823420e+00 9.833235e-04 0
2.822758e+00 1.090754e-03 0
2.822053e+00 1.191954e-03 0
2.821307e+00 1.287340e-03 0
2.820521e+00 1.377254e-03 0
2.819699e+00 1.461991e-03 0
2.818841e+00 1.541812e-03 0
2.817951e+00 1.616937e-03 0
2.817029e+00 1.687563e-03 0
2.816078e+00 1.753873e-03 0
2.815100e+00 1.816049e-03 0
2.814095e+00 1.874283e-03 0
2.813067e+00 1.928773e-03 0
2.812015e+00 1.979710e-03 0
2.810942e+00 2.027272e-03 0
2.809849e+00 2.071620e-03 0
2.808737e+00 2.112899e-03 0
2.807608e+00 2.151251e-03 0
2.806462e+00 2.186815e-03 0
2.805301e+00 2.219731e-03 0
2.804126e+00 2.250138e-03 0
2.802937e+00 2.278170e-03 0
2.801736e+00 2.303953e-03 0
2.800524e+00 2.327604e-03 0
2.799302e+00 2.349232e-03 0
2.798070e+00 2.368940e-03 0
2.796829e+00 2.386824e-03 0
2.795579e+00 2.402976e-03 0
2.794323e+00 2.417483e-03 0
2.793059e+00 2.430431e-03 0
2.791789e+00 2.441901e-03 0
2.790514e+00 2.451973e-03 0
2.789234e+00 2.460723e-03 0
2.787949e+00 2.468225e-03 0
2.786660e+00 2.474545e-03 0
2.785367e+00 2.479745e-03 0
2.784072e+00 2.483876e-03 0
2.782774e+00 2.486990e-03 0
2.781474e+00 2.489132e-03 0
2.780172e+00 2.490354e-03 0
2.778868e+00 2.490706e-03 0
2.777564e+00 2.490237e-03 0
2.776258e+00 2.488991e-03 0
2.774953e+00 2.487006e-03 0
2.773647e+00 2.484314e-03 0
2.772341e+00 2.480945e-03 0
2.771036e+00 2.476927e-03 0
2.769732e+00 2.472291e-03 0
2.768428e+00 2.467064e-03 0
2.767126e+00 2.461274e-03 0
2.765825e+00 2.454948e-03 0
2.764526e+00 2.448109e-03 0
2.763229e+00 2.440775e-03 0
2.761934e+00 2.432965e-03 0
2.760641e+00 2.424691e-03 0
2.759351e+00 2.415967e-03 0
2.758063e+00 2.406807e-03 0
2.756779e+00 2.397225e-03 0
2.755497e+00 2.387234e-03 0
2.754219e+00 2.376847e-03 0
2.752944e+00 2.366072e-03 0
2.751673e+00 2.354916e-03 0
2.750406e+00 2.343385e-03 0
2.749142e+00 2.331483e-03 0
2.747883e+00 2.319213e-03 0
2.746628e+00 2.306581e-03 0
2.745377e+00 2.293588e-03 0
2.744131e+00 2.280238e-03 0
2.742890e+00 2.266532e-03 0
2.741653e+00 2.252472e-03 0
2.740422e+00 2.238056e-03 0
2.739196e+00 2.223283e-03 0
2.737975e+00 2.208151e-03 0
2.736760e+00 2.192658e-03 0
2.735551e+00 2.176798e-03 0
2.734347e+00 2.160568e-03 0
2.733150e+00 2.143959e-03 0
2.731959e+00 2.126964e-03 0
2.730774e+00 2.109568e-03 0
2.729596e+00 2.091753e-03 0
2.728425e+00 2.073494e-03 0
2.727261e+00 2.054754e-03 0
2.726103e+00 2.035478e-03 0
2.724954e+00 2.015587e-03 0
2.723812e+00 1.994968e-03 0
2.722678e+00 1.973448e-03 0
2.721553e+00 1.950771e-03 0
2.720437e+00 1.926542e-03 0
2.719330e+00 1.900142e-03 0
2.718234e+00 1.870566e-03 0
2.717150e+00 1.836105e-03 0
2.716078e+00 1.793757e-03 0
2.715021e+00 1.737935e-03 0
2.713979e+00 1.659802e-03 0
2.712922e+00 1.641321e-03 0
2.712922e+00 1.668777e-03 0
3.614239e+00 -9.626462e-05 0
3.614239e+00 -8.982459e-05 0
3.614268e+00 -6.344179e-05 0
3.614289e+00 -9.828199e-06 0
3.614295e+00 7.221907e-05 0
3.614280e+00 1.848847e-04 0
3.614237e+00 3.309875e-04 0
3.614158e+00 5.141266e-04 0
3.614034e+00 7.386208e-04 0
3.613855e+00 1.009475e-03 0
3.613611e+00 1.332389e-03 0
3.613288e+00 1.713787e-03 0
3.612872e+00 2.160874e-03 0
3.612347e+00 2.681692e-03 0
3.611696e+00 3.285251e-03 0
3.610899e+00 3.981714e-03 0
3.609932e+00 4.782676e-03 0
3.608772e+00 5.701569e-03 0
3.607390e+00 6.754143e-03 0
3.605756e+00 7.959095e-03 0
3.603833e+00 9.338904e-03 0
3.601581e+00 1.092073e-02 0
3.598954e+00 1.273750e-02 0
3.595896e+00 1.482899e-02 0
3.592341e+00 1.724253e-02 0
3.588204e+00 2.003243e-02 0
3.583379e+00 2.325592e-02 0
3.577717e+00 2.696045e-02 0
3.571003e+00 3.115093e-02 0
3.562922e+00 3.571198e-02 0
3.553019e+00 4.024085e-02 0
3.540773e+00 4.375426e-02 0
3.526121e+00 4.444358e-02 0
3.511275e+00 4.069441e-02 0
3.500554e+00 3.365290e-02 0
3.493741e+00 2.604391e-02 0
3.489564e+00 1.934646e-02 0
3.486992e+00 1.397567e-02 0
3.485383e+00 9.858509e-03 0
3.484364e+00 6.772119e-03 0
3.483722e+00 4.484208e-03 0
3.483325e+00 2.797582e-03 0
3.483087e+00 1.558513e-03 0
3.482941e+00 6.567578e-04 0
3.482836e+00 6.502683e-06 0
3.482733e+00 -4.523161e-04 0
3.482616e+00 -7.533272e-04 0
3.482479e+00 -9.246237e-04 0
3.482319e+00 -9.902454e-04 0
3.482136e+00 -9.707543e-04 0
3.481928e+00 -8.836810e-04 0
3.481697e+00 -7.439279e-04 0
3.481443e+00 -5.641803e-04 0
3.481167e+00 -3.553803e-04 0
3.480871e+00 -1.309327e-04 0
3.480559e+00 9.539593e-05 0
3.480230e+00 3.201568e-04 0
3.479872e+00 5.417918e-04 0
3.479479e+00 7.548056e-04 0
3.479048e+00 9.567117e-04 0
3.478579e+00 1.146839e-03 0
3.478071e+00 1.325509e-03 0
3.477525e+00 1.493641e-03 0
3.476941e+00 1.652132e-03 0
3.476321e+00 1.801697e-03 0
3.475667e+00 1.942901e-03 0
3.474981e+00 2.076213e-03 0
3.474264e+00 2.202043e-03 0
3.473518e+00 2.320758e-03 0
3.472745e+00 2.432685e-03 0
3.471946e+00 2.538116e-03 0
3.471122e+00 2.637320e-03 0
3.470275e+00 2.730559e-03 0
3.469406e+00 2.818095e-03 0
3.468517e+00 2.900198e-03 0
3.467608e+00 2.977134e-03 0
3.466681e+00 3.049159e-03 0
3.465738e+00 3.116508e-03 0
3.464778e+00 3.179400e-03 0
3.463803e+00 3.238040e-03 0
3.462814e+00 3.292630e-03 0
3.461812e+00 3.343367e-03 0
3.460798e+00 3.390447e-03 0
3.459772e+00 3.434061e-03 0
3.458735e+00 3.474390e-03 0
3.457689e+00 3.511605e-03 0
3.456633e+00 3.545865e-03 0
3.455569e+00 3.577322e-03 0
3.454497e+00 3.606116e-03 0
3.453417e+00 3.632381e-03 0
3.452331e+00 3.656246e-03 0
3.451238e+00 3.677833e-03 0
3.450139e+00 3.697262e-03 0
3.449035e+00 3.714647e-03 0
3.447927e+00 3.730095e-03 0
3.446814e+00 3.743711e-03 0
3.445697e+00 3.755591e-03 0
3.444576e+00 3.765825e-03 0
3.443452e+00 3.774497e-03 0
3.442325e+00 3.781682e-03 0
3.441196e+00 3.787450e-03 0
3.440065e+00 3.791871e-03 0
3.438931e+00 3.795015e-03 0
3.437796e+00 3.796950e-03 0
3.436660e+00 3.797742e-03 0
3.435523e+00 3.797448e-03 0
3.434385e+00 3.796118e-03 0
3.433246e+00 3.793796e-03 0
3.432107e+00 3.790527e-03 0
3.430968e+00 3.786351e-03 0
3.429828e+00 3.781311e-03 0
3.428689e+00 3.775445e-03 0
3.427551e+00 3.768793e-03 0
3.426413e+00 3.761386e-03 0
3.425276e+00 3.753256e-03 0
3.424140e+00 3.744427e-03 0
3.423006e+00 3.734924e-03 0
3.421872e+00 3.724765e-03 0
3.420740e+00 3.713973e-03 0
3.419610e+00 3.702565e-03 0
3.418481e+00 3.690561e-03 0
3.417354e+00 3.677979e-03 0
3.416230e+00 3.664833e-03 0
3.415107e+00 3.651135e-03 0
3.413987e+00 3.636893e-03 0
3.412870e+00 3.622115e-03 0
3.411755e+00 3.606807e-03 0
3.410642e+00 3.590976e-03 0
3.409533e+00 3.574626e-03 0
3.408427e+00 3.557762e-03 0
3.407323e+00 3.540386e-03 0
3.406223e+00 3.522500e-03 0
3.405127e+00 3.504103e-03 0
3.404033e+00 3.485196e-03 0
3.402944e+00 3.465775e-03 0
3.401858e+00 3.445838e-03 0
3.400776e+00 3.425381e-03 0
3.399699e+00 3.404396e-03 0
3.398625e+00 3.382878e-03 0
3.397556e+00 3.360817e-03 0
3.396491e+00 3.338201e-03 0
3.395431e+00 3.315011e-03 0
3.394375e+00 3.291225e-03 0
3.393325e+00 3.266809e-03 0
3.392279e+00 3.241714e-03 0
3.391239e+00 3.215871e-03 0
3.390204e+00 3.189183e-03 0
3.389174e+00 3.161504e-03 0
3.388150e+00 3.132622e-03 0
3.387133e+00 3.102223e-03 0
3.386121e+00 3.069840e-03 0
3.385115e+00 3.034768e-03 0
3.384116e+00 2.995938e-03 0
3.383124e+00 2.951730e-03 0
3.382138e+00 2.899781e-03 0
3.381156e+00 2.837073e-03 0
3.380174e+00 2.760633e-03 0
3.379182e+00 2.688690e-03 0
3.379182e+00 2.658737e-03 0
3.963678e+00 -1.348522e-04 0
3.963678e+00 -1.266467e-04 0
3.963716e+00 -9.483450e-05 0
3.963748e+00 -3.138727e-05 0
3.963771e+00 6.558011e-05 0
3.963781e+00 1.986798e-04 0
3.963774e+00 3.714722e-04 0
3.963745e+00 5.883845e-04 0
3.963688e+00 8.546875e-04 0
3.963595e+00 1.176487e-03 0
3.963460e+00 1.560724e-03 0
3.963274e+00 2.015195e-03 0
3.963026e+00 2.548569e-03 0
3.962705e+00 3.170460e-03 0
3.962299e+00 3.891559e-03 0
3.961795e+00 4.723836e-03 0
3.961176e+00 5.680869e-03 0
3.960426e+00 6.778262e-03 0
3.959527e+00 8.034231e-03 0
3.958460e+00 9.470399e-03 0
3.957203e+00 1.111276e-02 0
3.955731e+00 1.299294e-02 0
3.954018e+00 1.514997e-02 0
3.952032e+00 1.763240e-02 0
3.949734e+00 2.050118e-02 0
3.947071e+00 2.383329e-02 0
3.943969e+00 2.772602e-02 0
3.940304e+00 3.230006e-02 0
3.935857e+00 3.769326e-02 0
3.930198e+00 4.401255e-02 0
3.922466e+00 5.113063e-02 0
3.910992e+00 5.800410e-02 0
3.893197e+00 6.088205e-02 0
3.872366e+00 5.456127e-02 0
3.862417e+00 4.207653e-02 0
3.858749e+00 3.048949e-02 0
3.857771e+00 2.156148e-02 0
3.857791e+00 1.505721e-02 0
3.858123e+00 1.037895e-02 0
3.858510e+00 7.011076e-03 0
3.858867e+00 4.578606e-03 0
3.859168e+00 2.819574e-03 0
3.859409e+00 1.552164e-03 0
3.859585e+00 6.495838e-04 0
3.859702e+00 2.042386e-05 0
3.859754e+00 -4.013240e-04 0
3.859745e+00 -6.613822e-04 0
3.859681e+00 -7.929316e-04 0
3.859568e+00 -8.219536e-04 0
3.859413e+00 -7.695008e-04 0
3.859222e+00 -6.529690e-04 0
3.859000e+00 -4.868474e-04 0
3.858751e+00 -2.830381e-04 0
3.858480e+00 -5.520288e-05 0
3.858189e+00 1.859079e-04 0
3.857876e+00 4.359033e-04 0
3.857538e+00 6.895864e-04 0
3.857175e+00 9.410330e-04 0
3.856786e+00 1.185720e-03 0
3.856369e+00 1.420886e-03 0
3.855925e+00 1.645172e-03 0
3.855451e+00 1.858173e-03 0
3.854950e+00 2.060059e-03 0
3.854420e+00 2.251235e-03 0
3.853864e+00 2.432162e-03 0
3.853282e+00 2.603297e-03 0
3.852676e+00 2.765083e-03 0
3.852047e+00 2.917940e-03 0
3.851395e+00 3.062261e-03 0
3.850723e+00 3.198410e-03 0
3.850032e+00 3.326722e-03 0
3.849321e+00 3.447522e-03 0