<?xml version="1.0"?>
<VTKFile type="StructuredGrid">
<StructuredGrid WholeExtent="0 158 0 30 0 0 ">
<Piece Extent="0 158 0 30 0 0 ">
<Points>
<DataArray type="Float64" format="ascii" NumberOfComponents="3">
0.000000e+00 0.000000e+00 0.000000e+00
3.164557e-02 0.000000e+00 0.000000e+00
6.329114e-02 0.000000e+00 0.000000e+00
9.493671e-02 0.000000e+00 0.000000e+00
1.265823e-01 0.000000e+00 0.000000e+00
1.582278e-01 0.000000e+00 0.000000e+00
1.898734e-01 0.000000e+00 0.000000e+00
2.215190e-01 0.000000e+00 0.000000e+00
2.531646e-01 0.000000e+00 0.000000e+00
2.848101e-01 0.000000e+00 0.000000e+00
3.164557e-01 0.000000e+00 0.000000e+00
3.481013e-01 0.000000e+00 0.000000e+00
3.797468e-01 0.000000e+00 0.000000e+00
4.113924e-01 0.000000e+00 0.000000e+00
4.430380e-01 0.000000e+00 0.000000e+00
4.746835e-01 0.000000e+00 0.000000e+00
5.063291e-01 0.000000e+00 0.000000e+00
5.379747e-01 0.000000e+00 0.000000e+00
5.696203e-01 0.000000e+00 0.000000e+00
6.012658e-01 0.000000e+00 0.000000e+00
6.329114e-01 0.000000e+00 0.000000e+00
6.645570e-01 0.000000e+00 0.000000e+00
6.962025e-01 0.000000e+00 0.000000e+00
7.278481e-01 0.000000e+00 0.000000e+00
7.594937e-01 0.000000e+00 0.000000e+00
7.911392e-01 0.000000e+00 0.000000e+00
8.227848e-01 0.000000e+00 0.000000e+00
8.544304e-01 0.000000e+00 0.000000e+00
8.860759e-01 0.000000e+00 0.000000e+00
9.177215e-01 0.000000e+00 0.000000e+00
9.493671e-01 0.000000e+00 0.000000e+00
9.810127e-01 0.000000e+00 0.000000e+00
1.012658e+00 0.000000e+00 0.000000e+00
1.044304e+00 0.000000e+00 0.000000e+00
1.075949e+00 0.000000e+00 0.000000e+00
1.107595e+00 0.000000e+00 0.000000e+00
1.139241e+00 0.000000e+00 0.000000e+00
1.170886e+00 0.000000e+00 0.000000e+00
1.202532e+00 0.000000e+00 0.000000e+00
1.234177e+00 0.000000e+00 0.000000e+00
1.265823e+00 0.000000e+00 0.000000e+00
1.297468e+00 0.000000e+00 0.000000e+00
1.329114e+00 0.000000e+00 0.000000e+00
1.360759e+00 0.000000e+00 0.000000e+00
1.392405e+00 0.000000e+00 0.000000e+00
1.424051e+00 0.000000e+00 0.000000e+00
1.455696e+00 0.000000e+00 0.000000e+00
1.487342e+00 0.000000e+00 0.000000e+00
1.518987e+00 0.000000e+00 0.000000e+00
1.550633e+00 0.000000e+00 0.000000e+00
1.582278e+00 0.000000e+00 0.000000e+00
1.613924e+00 0.000000e+00 0.000000e+00
1.645570e+00 0.000000e+00 0.000000e+00
1.677215e+00 0.000000e+00 0.000000e+00
1.708861e+00 0.000000e+00 0.000000e+00
1.740506e+00 0.000000e+00 0.000000e+00
1.772152e+00 0.000000e+00 0.000000e+00
1.803797e+00 0.000000e+00 0.000000e+00
1.835443e+00 0.000000e+00 0.000000e+00
1.867089e+00 0.000000e+00 0.000000e+00
1.898734e+00 0.000000e+00 0.000000e+00
1.930380e+00 0.000000e+00 0.000000e+00
1.962025e+00 0.000000e+00 0.000000e+00
1.993671e+00 0.000000e+00 0.000000e+00
2.025316e+00 0.000000e+00 0.000000e+00
2.056962e+00 0.000000e+00 0.000000e+00
2.088608e+00 0.000000e+00 0.000000e+00
2.120253e+00 0.000000e+00 0.000000e+00
2.151899e+00 0.000000e+00 0.000000e+00
2.183544e+00 0.000000e+00 0.000000e+00
2.215190e+00 0.000000e+00 0.000000e+00
2.246835e+00 0.000000e+00 0.000000e+00
2.278481e+00 0.000000e+00 0.000000e+00
2.310127e+00 0.000000e+00 0.000000e+00
2.341772e+00 0.000000e+00 0.000000e+00
2.373418e+00 0.000000e+00 0.000000e+00
2.405063e+00 0.000000e+00 0.000000e+00
2.436709e+00 0.000000e+00 0.000000e+00
2.468354e+00 0.000000e+00 0.000000e+00
2.500000e+00 0.000000e+00 0.000000e+00
2.531646e+00 0.000000e+00 0.000000e+00
2.563291e+00 0.000000e+00 0.000000e+00
2.594937e+00 0.000000e+00 0.000000e+00
2.626582e+00 0.000000e+00 0.000000e+00
2.658228e+00 0.000000e+00 0.000000e+00
2.689873e+00 0.000000e+00 0.000000e+00
2.721519e+00 0.000000e+00 0.000000e+00
2.753165e+00 0.000000e+00 0.000000e+00
2.784810e+00 0.000000e+00 0.000000e+00
2.816456e+00 0.000000e+00 0.000000e+00
2.848101e+00 0.000000e+00 0.000000e+00
2.879747e+00 0.000000e+00 0.000000e+00
2.911392e+00 0.000000e+00 0.000000e+00
2.943038e+00 0.000000e+00 0.000000e+00
2.974684e+00 0.000000e+00 0.000000e+00
3.006329e+00 0.000000e+00 0.000000e+00
3.037975e+00 0.000000e+00 0.000000e+00
3.069620e+00 0.000000e+00 0.000000e+00
3.101266e+00 0.000000e+00 0.000000e+00
3.132911e+00 0.000000e+00 0.000000e+00
3.164557e+00 0.000000e+00 0.000000e+00
3.196203e+00 0.000000e+00 0.000000e+00
3.227848e+00 0.000000e+00 0.000000e+00
3.259494e+00 0.000000e+00 0.000000e+00
3.291139e+00 0.000000e+00 0.000000e+00
3.322785e+00 0.000000e+00 0.000000e+00
3.354430e+00 0.000000e+00 0.000000e+00
3.386076e+00 0.000000e+00 0.000000e+00
3.417722e+00 0.000000e+00 0.000000e+00
3.449367e+00 0.000000e+00 0.000000e+00
3.481013e+00 0.000000e+00 0.000000e+00
3.512658e+00 0.000000e+00 0.000000e+00
3.544304e+00 0.000000e+00 0.000000e+00
3.575949e+00 0.000000e+00 0.000000e+00
3.607595e+00 0.000000e+00 0.000000e+00
3.639241e+00 0.000000e+00 0.000000e+00
3.670886e+00 0.000000e+00 0.000000e+00
3.702532e+00 0.000000e+00 0.000000e+00
3.734177e+00 0.000000e+00 0.000000e+00
3.765823e+00 0.000000e+00 0.000000e+00
3.797468e+00 0.000000e+00 0.000000e+00
3.829114e+00 0.000000e+00 0.000000e+00
3.860759e+00 0.000000e+00 0.000000e+00
3.892405e+00 0.000000e+00 0.000000e+00
3.924051e+00 0.000000e+00 0.000000e+00
3.955696e+00 0.000000e+00 0.000000e+00
3.987342e+00 0.000000e+00 0.000000e+00
4.018987e+00 0.000000e+00 0.000000e+00
4.050633e+00 0.000000e+00 0.000000e+00
4.082278e+00 0.000000e+00 0.000000e+00
4.113924e+00 0.000000e+00 0.000000e+00
4.145570e+00 0.000000e+00 0.000000e+00
4.177215e+00 0.000000e+00 0.000000e+00
4.208861e+00 0.000000e+00 0.000000e+00
4.240506e+00 0.000000e+00 0.000000e+00
4.272152e+00 0.000000e+00 0.000000e+00
4.303797e+00 0.000000e+00 0.000000e+00
4.335443e+00 0.000000e+00 0.000000e+00
4.367089e+00 0.000000e+00 0.000000e+00
4.398734e+00 0.000000e+00 0.000000e+00
4.430380e+00 0.000000e+00 0.000000e+00
4.462025e+00 0.000000e+00 0.000000e+00
4.493671e+00 0.000000e+00 0.000000e+00
4.525316e+00 0.000000e+00 0.000000e+00
4.556962e+00 0.000000e+00 0.000000e+00
4.588608e+00 0.000000e+00 0.000000e+00
4.620253e+00 0.000000e+00 0.000000e+00
4.651899e+00 0.000000e+00 0.000000e+00
4.683544e+00 0.000000e+00 0.000000e+00
4.715190e+00 0.000000e+00 0.000000e+00
4.746835e+00 0.000000e+00 0.000000e+00
4.778481e+00 0.000000e+00 0.000000e+00
4.810127e+00 0.000000e+00 0.000000e+00
4.841772e+00 0.000000e+00 0.000000e+00
4.873418e+00 0.000000e+00 0.000000e+00
4.905063e+00 0.000000e+00 0.000000e+00
4.936709e+00 0.000000e+00 0.000000e+00
4.968354e+00 0.000000e+00 0.000000e+00
5.000000e+00 0.000000e+00 0.000000e+00
0.000000e+00 3.333333e-02 0.000000e+00
3.164557e-02 3.333333e-02 0.000000e+00
6.329114e-02 3.333333e-02 0.000000e+00
9.493671e-02 3.333333e-02 0.000000e+00
1.265823e-01 3.333333e-02 0.000000e+00
1.582278e-01 3.333333e-02 0.000000e+00
1.898734e-01 3.333333e-02 0.000000e+00
2.215190e-01 3.333333e-02 0.000000e+00
2.531646e-01 3.333333e-02 0.000000e+00
2.848101e-01 3.333333e-02 0.000000e+00
3.164557e-01 3.333333e-02 0.000000e+00
3.481013e-01 3.333333e-02 0.000000e+00
3.797468e-01 3.333333e-02 0.000000e+00
4.113924e-01 3.333333e-02 0.000000e+00
4.430380e-01 3.333333e-02 0.000000e+00
4.746835e-01 3.333333e-02 0.000000e+00
5.063291e-01 3.333333e-02 0.000000e+00
5.379747e-01 3.333333e-02 0.000000e+00
5.696203e-01 3.333333e-02 0.000000e+00
6.012658e-01 3.333333e-02 0.000000e+00
6.329114e-01 3.333333e-02 0.000000e+00
6.645570e-01 3.333333e-02 0.000000e+00
6.962025e-01 3.333333e-02 0.000000e+00
7.278481e-01 3.333333e-02 0.000000e+00
7.594937e-01 3.333333e-02 0.000000e+00
7.911392e-01 3.333333e-02 0.000000e+00
8.227848e-01 3.333333e-02 0.000000e+00
8.544304e-01 3.333333e-02 0.000000e+00
8.860759e-01 3.333333e-02 0.000000e+00
9.177215e-01 3.333333e-02 0.000000e+00
9.493671e-01 3.333333e-02 0.000000e+00
9.810127e-01 3.333333e-02 0.000000e+00
1.012658e+00 3.333333e-02 0.000000e+00
1.044304e+00 3.333333e-02 0.000000e+00
1.075949e+00 3.333333e-02 0.000000e+00
1.107595e+00 3.333333e-02 0.000000e+00
1.139241e+00 3.333333e-02 0.000000e+00
1.170886e+00 3.333333e-02 0.000000e+00
1.202532e+00 3.333333e-02 0.000000e+00
1.234177e+00 3.333333e-02 0.000000e+00
1.265823e+00 3.333333e-02 0.000000e+00
1.297468e+00 3.333333e-02 0.000000e+00
1.329114e+00 3.333333e-02 0.000000e+00
1.360759e+00 3.333333e-02 0.000000e+00
1.392405e+00 3.333333e-02 0.000000e+00
1.424051e+00 3.333333e-02 0.000000e+00
1.455696e+00 3.333333e-02 0.000000e+00
1.487342e+00 3.333333e-02 0.000000e+00
1.518987e+00 3.333333e-02 0.000000e+00
1.550633e+00 3.333333e-02 0.000000e+00
1.582278e+00 3.333333e-02 0.000000e+00
1.613924e+00 3.333333e-02 0.000000e+00
1.645570e+00 3.333333e-02 0.000000e+00
1.677215e+00 3.333333e-02 0.000000e+00
1.708861e+00 3.333333e-02 0.000000e+00
1.740506e+00 3.333333e-02 0.000000e+00
1.772152e+00 3.333333e-02 0.000000e+00
1.803797e+00 3.333333e-02 0.000000e+00
1.835443e+00 3.333333e-02 0.000000e+00
1.867089e+00 3.333333e-02 0.000000e+00
1.898734e+00 3.333333e-02 0.000000e+00
1.930380e+00 3.333333e-02 0.000000e+00
1.962025e+00 3.333333e-02 0.000000e+00
1.993671e+00 3.333333e-02 0.000000e+00
2.025316e+00 3.333333e-02 0.000000e+00
2.056962e+00 3.333333e-02 0.000000e+00
2.088608e+00 3.333333e-02 0.000000e+00
2.120253e+00 3.333333e-02 0.000000e+00
2.151899e+00 3.333333e-02 0.000000e+00
2.183544e+00 3.333333e-02 0.000000e+00
2.215190e+00 3.333333e-02 0.000000e+00
2.246835e+00 3.333333e-02 0.000000e+00
2.278481e+00 3.333333e-02 0.000000e+00
2.310127e+00 3.333333e-02 0.000000e+00
2.341772e+00 3.333333e-02 0.000000e+00
2.373418e+00 3.333333e-02 0.000000e+00
2.405063e+00 3.333333e-02 0.000000e+00
2.436709e+00 3.333333e-02 0.000000e+00
2.468354e+00 3.333333e-02 0.000000e+00
2.500000e+00 3.333333e-02 0.000000e+00
2.531646e+00 3.333333e-02 0.000000e+00
2.563291e+00 3.333333e-02 0.000000e+00
2.594937e+00 3.333333e-02 0.000000e+00
2.626582e+00 3.333333e-02 0.000000e+00
2.658228e+00 3.333333e-02 0.000000e+00
2.689873e+00 3.333333e-02 0.000000e+00
2.721519e+00 3.333333e-02 0.000000e+00
2.753165e+00 3.333333e-02 0.000000e+00
2.784810e+00 3.333333e-02 0.000000e+00
2.816456e+00 3.333333e-02 0.000000e+00
2.848101e+00 3.333333e-02 0.000000e+00
2.879747e+00 3.333333e-02 0.000000e+00
[...]
<PointData>
<DataArray Name="Velocity" type="Float64" format="ascii" NumberOfComponents="3">
0.000000e+00 0.000000e+00 0
0.000000e+00 0.000000e+00 0
0.000000e+00 0.000000e+00 0
0.000000e+00 0.000000e+00 0
0.000000e+00 0.000000e+00 0
0.000000e+00 0.000000e+00 0
0.000000e+00 0.000000e+00 0
0.000000e+00 0.000000e+00 0
0.000000e+00 0.000000e+00 0
0.000000e+00 0.000000e+00 0
0.000000e+00 0.000000e+00 0
0.000000e+00 0.000000e+00 0
0.000000e+00 0.000000e+00 0
0.000000e+00 0.000000e+00 0
0.000000e+00 0.000000e+00 0
0.000000e+00 0.000000e+00 0
0.000000e+00 0.000000e+00 0
0.000000e+00 0.000000e+00 0
0.000000e+00 0.000000e+00 0
-2.752281e-17 0.000000e+00 0
0.000000e+00 0.000000e+00 0
0.000000e+00 0.000000e+00 0
0.000000e+00 0.000000e+00 0
-2.096571e-17 0.000000e+00 0
0.000000e+00 0.000000e+00 0
0.000000e+00 0.000000e+00 0
0.000000e+00 0.000000e+00 0
-2.173354e-18 0.000000e+00 0
0.000000e+00 0.000000e+00 0
0.000000e+00 0.000000e+00 0
0.000000e+00 0.000000e+00 0
1.212306e-17 0.000000e+00 0
0.000000e+00 0.000000e+00 0
0.000000e+00 0.000000e+00 0
0.000000e+00 0.000000e+00 0
0.000000e+00 0.000000e+00 0
0.000000e+00 0.000000e+00 0
0.000000e+00 0.000000e+00 0
2.071140e-17 0.000000e+00 0
0.000000e+00 0.000000e+00 0
0.000000e+00 0.000000e+00 0
0.000000e+00 0.000000e+00 0
0.000000e+00 0.000000e+00 0
0.000000e+00 0.000000e+00 0
0.000000e+00 0.000000e+00 0
0.000000e+00 0.000000e+00 0
3.485367e-18 0.000000e+00 0
0.000000e+00 0.000000e+00 0
0.000000e+00 0.000000e+00 0
0.000000e+00 0.000000e+00 0
0.000000e+00 0.000000e+00 0
0.000000e+00 0.000000e+00 0
0.000000e+00 0.000000e+00 0
0.000000e+00 0.000000e+00 0
-2.377543e-17 0.000000e+00 0
0.000000e+00 0.000000e+00 0
0.000000e+00 0.000000e+00 0
0.000000e+00 0.000000e+00 0
0.000000e+00 0.000000e+00 0
0.000000e+00 0.000000e+00 0
0.000000e+00 0.000000e+00 0
0.000000e+00 0.000000e+00 0
-1.258193e-17 0.000000e+00 0
0.000000e+00 0.000000e+00 0
0.000000e+00 0.000000e+00 0
0.000000e+00 0.000000e+00 0
0.000000e+00 0.000000e+00 0
0.000000e+00 0.000000e+00 0
0.000000e+00 0.000000e+00 0
0.000000e+00 0.000000e+00 0
0.000000e+00 0.000000e+00 0
0.000000e+00 0.000000e+00 0
0.000000e+00 0.000000e+00 0
0.000000e+00 0.000000e+00 0
0.000000e+00 0.000000e+00 0
0.000000e+00 0.000000e+00 0
0.000000e+00 0.000000e+00 0
0.000000e+00 0.000000e+00 0
0.000000e+00 0.000000e+00 0
0.000000e+00 0.000000e+00 0
0.000000e+00 0.000000e+00 0
0.000000e+00 0.000000e+00 0
0.000000e+00 0.000000e+00 0
0.000000e+00 0.000000e+00 0
0.000000e+00 0.000000e+00 0
0.000000e+00 0.000000e+00 0
0.000000e+00 0.000000e+00 0
0.000000e+00 0.000000e+00 0
0.000000e+00 0.000000e+00 0
0.000000e+00 0.000000e+00 0
0.000000e+00 0.000000e+00 0
0.000000e+00 0.000000e+00 0
0.000000e+00 0.000000e+00 0
0.000000e+00 0.000000e+00 0
0.000000e+00 0.000000e+00 0
0.000000e+00 0.000000e+00 0
0.000000e+00 0.000000e+00 0
0.000000e+00 0.000000e+00 0
0.000000e+00 0.000000e+00 0
0.000000e+00 0.000000e+00 0
0.000000e+00 0.000000e+00 0
0.000000e+00 0.000000e+00 0
0.000000e+00 0.000000e+00 0
0.000000e+00 0.000000e+00 0
0.000000e+00 0.000000e+00 0
0.000000e+00 0.000000e+00 0
0.000000e+00 0.000000e+00 0
0.000000e+00 0.000000e+00 0
0.000000e+00 0.000000e+00 0
0.000000e+00 0.000000e+00 0
0.000000e+00 0.000000e+00 0
0.000000e+00 0.000000e+00 0
0.000000e+00 0.000000e+00 0
0.000000e+00 0.000000e+00 0
0.000000e+00 0.000000e+00 0
0.000000e+00 0.000000e+00 0
0.000000e+00 0.000000e+00 0
0.000000e+00 0.000000e+00 0
0.000000e+00 0.000000e+00 0
0.000000e+00 0.000000e+00 0
0.000000e+00 0.000000e+00 0
0.000000e+00 0.000000e+00 0
0.000000e+00 0.000000e+00 0
0.000000e+00 0.000000e+00 0
0.000000e+00 0.000000e+00 0
0.000000e+00 0.000000e+00 0
0.000000e+00 0.000000e+00 0
0.000000e+00 0.000000e+00 0
0.000000e+00 0.000000e+00 0
0.000000e+00 0.000000e+00 0
0.000000e+00 0.000000e+00 0
0.000000e+00 0.000000e+00 0
0.000000e+00 0.000000e+00 0
0.000000e+00 0.000000e+00 0
0.000000e+00 0.000000e+00 0
0.000000e+00 0.000000e+00 0
0.000000e+00 0.000000e+00 0
0.000000e+00 0.000000e+00 0
0.000000e+00 0.000000e+00 0
0.000000e+00 0.000000e+00 0
0.000000e+00 0.000000e+00 0
0.000000e+00 0.000000e+00 0
0.000000e+00 0.000000e+00 0
0.000000e+00 0.000000e+00 0
0.000000e+00 0.000000e+00 0
0.000000e+00 0.000000e+00 0
0.000000e+00 0.000000e+00 0
0.000000e+00 0.000000e+00 0
0.000000e+00 0.000000e+00 0
0.000000e+00 0.000000e+00 0
0.000000e+00 0.000000e+00 0
0.000000e+00 0.000000e+00 0
0.000000e+00 0.000000e+00 0
0.000000e+00 0.000000e+00 0
0.000000e+00 0.000000e+00 0
0.000000e+00 0.000000e+00 0
0.000000e+00 0.000000e+00 0
0.000000e+00 0.000000e+00 0
0.000000e+00 0.000000e+00 0
1.259819e+00 -1.025476e-04 0
1.259819e+00 -1.110430e-04 0
1.259913e+00 -1.091632e-04 0
1.259989e+00 -7.615210e-05 0
1.260030e+00 -2.460721e-05 0
1.260023e+00 3.861498e-05 0
1.259952e+00 1.155832e-04 0
1.259801e+00 2.109959e-04 0
1.259549e+00 3.281909e-04 0
1.259175e+00 4.704064e-04 0
1.258653e+00 6.412050e-04 0
1.257954e+00 8.445907e-04 0
1.257045e+00 1.085038e-03 0
1.255888e+00 1.367629e-03 0
1.254441e+00 1.698173e-03 0
1.252655e+00 2.083305e-03 0
1.250475e+00 2.530813e-03 0
1.247837e+00 3.049664e-03 0
1.244668e+00 3.650389e-03 0
1.240886e+00 4.345839e-03 0
1.236392e+00 5.151345e-03 0
1.231075e+00 6.085195e-03 0
1.224801e+00 7.169264e-03 0
1.217417e+00 8.429112e-03 0
1.208739e+00 9.893188e-03 0
1.198557e+00 1.159037e-02 0
1.186628e+00 1.354343e-02 0
1.172691e+00 1.575460e-02 0
1.156485e+00 1.817803e-02 0
1.137816e+00 2.067255e-02 0
1.116672e+00 2.293714e-02 0
1.093434e+00 2.446378e-02 0
1.069146e+00 2.461293e-02 0
1.045629e+00 2.296752e-02 0
1.024917e+00 1.980298e-02 0
1.008055e+00 1.592424e-02 0
9.951163e-01 1.207300e-02 0
9.856397e-01 8.678877e-03 0
9.789885e-01 5.891817e-03 0
9.745460e-01 3.690690e-03 0
9.717955e-01 1.963978e-03 0
9.703429e-01 4.417267e-04 0
9.698759e-01 -9.593194e-04 0
9.702035e-01 -2.085224e-03 0
9.711270e-01 -2.907689e-03 0
9.724689e-01 -3.456646e-03 0
9.740785e-01 -3.773282e-03 0
9.758308e-01 -3.900198e-03 0
9.776248e-01 -3.876789e-03 0
9.793808e-01 -3.737403e-03 0
9.810365e-01 -3.510914e-03 0
9.825449e-01 -3.221000e-03 0
9.838711e-01 -2.886762e-03 0
9.849901e-01 -2.523464e-03 0
9.858854e-01 -2.143163e-03 0
9.865472e-01 -1.754969e-03 0
9.869714e-01 -1.365346e-03 0
9.871616e-01 -9.759691e-04 0
9.871416e-01 -5.981424e-04 0
9.869367e-01 -2.621699e-04 0
9.865667e-01 -9.860746e-06 0
9.860459e-01 1.675476e-04 0
9.853893e-01 3.136376e-04 0
9.846093e-01 4.431943e-04 0
9.837156e-01 5.615291e-04 0
9.827161e-01 6.710142e-04 0
9.816178e-01 7.729418e-04 0
9.804270e-01 8.681346e-04 0
9.791493e-01 9.571804e-04 0
9.777899e-01 1.040536e-03 0
9.763538e-01 1.118576e-03 0
9.748456e-01 1.191626e-03 0
9.732695e-01 1.259974e-03 0
9.716298e-01 1.323882e-03 0
9.699302e-01 1.383590e-03 0
9.681745e-01 1.439325e-03 0
9.663661e-01 1.491297e-03 0
9.645083e-01 1.539706e-03 0
9.626043e-01 1.584741e-03 0
9.606569e-01 1.626579e-03 0
9.586690e-01 1.665392e-03 0
9.566432e-01 1.701339e-03 0
9.545821e-01 1.734573e-03 0
9.524879e-01 1.765239e-03 0
9.503631e-01 1.793474e-03 0
9.482096e-01 1.819407e-03 0
9.460296e-01 1.843160e-03 0
9.438249e-01 1.864848e-03 0
9.415974e-01 1.884579e-03 0
9.393488e-01 1.902455e-03 0
9.370807e-01 1.918568e-03 0
9.347946e-01 1.933009e-03 0
9.324921e-01 1.945859e-03 0
9.301745e-01 1.957195e-03 0
9.278432e-01 1.967090e-03 0
9.254995e-01 1.975609e-03 0
9.231446e-01 1.982818e-03 0
9.207795e-01 1.988774e-03 0
9.184055e-01 1.993532e-03 0
9.160236e-01 1.997146e-03 0
9.136348e-01 1.999662e-03 0
9.112401e-01 2.001127e-03 0
9.088403e-01 2.001580e-03 0
9.064365e-01 2.001060e-03 0
9.040294e-01 1.999602e-03 0
9.016199e-01 1.997238e-03 0
8.992089e-01 1.993995e-03 0
8.967970e-01 1.989901e-03 0
8.943850e-01 1.984979e-03 0
8.919737e-01 1.979250e-03 0
8.895638e-01 1.972733e-03 0
8.871559e-01 1.965446e-03 0
8.847509e-01 1.957405e-03 0
8.823493e-01 1.948624e-03 0
8.799518e-01 1.939116e-03 0
8.775591e-01 1.928892e-03 0
8.751718e-01 1.917964e-03 0
8.727906e-01 1.906341e-03 0
8.704160e-01 1.894034e-03 0
8.680486e-01 1.881050e-03 0
8.656892e-01 1.867399e-03 0
8.633382e-01 1.853087e-03 0
8.609964e-01 1.838122e-03 0
8.586642e-01 1.822510e-03 0
8.563422e-01 1.806256e-03 0
8.540312e-01 1.789365e-03 0
8.517315e-01 1.771842e-03 0
8.494438e-01 1.753690e-03 0
8.471687e-01 1.734912e-03 0
8.449068e-01 1.715511e-03 0
8.426585e-01 1.695487e-03 0
8.404246e-01 1.674841e-03 0
8.382056e-01 1.653573e-03 0
8.360020e-01 1.631681e-03 0
8.338144e-01 1.609162e-03 0
8.316435e-01 1.586013e-03 0
8.294897e-01 1.562229e-03 0
8.273538e-01 1.537804e-03 0
8.252364e-01 1.512732e-03 0
8.231379e-01 1.487003e-03 0
8.210592e-01 1.460607e-03 0
8.190008e-01 1.433528e-03 0
8.169633e-01 1.405745e-03 0
8.149476e-01 1.377231e-03 0
8.129542e-01 1.347949e-03 0
8.109840e-01 1.317851e-03 0
8.090378e-01 1.286865e-03 0
8.071164e-01 1.254898e-03 0
8.052209e-01 1.221829e-03 0
8.033524e-01 1.187481e-03 0
8.015122e-01 1.151611e-03 0
7.997019e-01 1.113866e-03 0
7.979234e-01 1.073681e-03 0
7.961793e-01 1.030134e-03 0
7.944731e-01 9.812170e-04 0
7.928098e-01 9.244876e-04 0
7.911963e-01 7.971796e-04 0
7.896432e-01 1.153944e-03 0
7.896432e-01 1.607447e-03 0
1.850192e+00 -2.017437e-04 0
1.850192e+00 -2.002362e-04 0
1.850271e+00 -1.791653e-04 0
1.850336e+00 -1.232593e-04 0
1.850378e+00 -3.584434e-05 0
1.850383e+00 8.222824e-05 0
1.850336e+00 2.342023e-04 0
1.850220e+00 4.247037e-04 0
1.850018e+00 6.592300e-04 0
1.849711e+00 9.440450e-04 0
1.849276e+00 1.286245e-03 0
1.848689e+00 1.693807e-03 0
1.847919e+00 2.175762e-03 0
1.846935e+00 2.742359e-03 0
1.845699e+00 3.405230e-03 0
1.844168e+00 4.177816e-03 0
1.842294e+00 5.075538e-03 0
1.840022e+00 6.116344e-03 0
1.837290e+00 7.321776e-03 0
1.834023e+00 8.717497e-03 0
1.830139e+00 1.033423e-02 0
1.825540e+00 1.220909e-02 0
1.820111e+00 1.438656e-02 0
1.813716e+00 1.691901e-02 0
1.806194e+00 1.986598e-02 0
1.797350e+00 2.329010e-02 0
1.786953e+00 2.724535e-02 0
1.774728e+00 3.175057e-02 0
1.760358e+00 3.673480e-02 0
1.743509e+00 4.193661e-02 0
1.723916e+00 4.674850e-02 0
1.701628e+00 5.006052e-02 0
1.677534e+00 5.035424e-02 0
1.654063e+00 4.658712e-02 0
1.634459e+00 3.957801e-02 0
1.619556e+00 3.139018e-02 0
1.608780e+00 2.361063e-02 0
1.601202e+00 1.698771e-02 0
1.595982e+00 1.168506e-02 0
1.592470e+00 7.576292e-03 0
1.590188e+00 4.426887e-03 0
1.588772e+00 2.021623e-03 0
1.587808e+00 1.465328e-04 0
1.587088e+00 -1.318015e-03 0
1.586527e+00 -2.386445e-03 0
1.586070e+00 -3.109162e-03 0
1.585681e+00 -3.541336e-03 0
1.585329e+00 -3.735699e-03 0
1.584992e+00 -3.739561e-03 0
1.584649e+00 -3.593842e-03 0
1.584283e+00 -3.333073e-03 0
1.583881e+00 -2.985880e-03 0
1.583430e+00 -2.575721e-03 0
1.582921e+00 -2.121866e-03 0
1.582346e+00 -1.640290e-03 0
1.581698e+00 -1.144043e-03 0
1.580984e+00 -6.472479e-04 0
1.580213e+00 -1.794016e-04 0
1.579394e+00 2.366965e-04 0
1.578524e+00 6.053679e-04 0
1.577591e+00 9.382862e-04 0
1.576556e+00 1.240130e-03 0
1.575415e+00 1.513044e-03 0
1.574170e+00 1.762902e-03 0
1.572827e+00 1.994114e-03 0
1.571391e+00 2.209546e-03 0
1.569868e+00 2.411104e-03 0
1.568261e+00 2.600133e-03 0
1.566576e+00 2.777652e-03 0
1.564817e+00 2.944473e-03 0
1.562988e+00 3.101281e-03 0
1.561093e+00 3.248673e-03 0
1.559135e+00 3.387182e-03 0
1.557118e+00 3.517296e-03 0
1.555045e+00 3.639466e-03 0
1.552918e+00 3.754114e-03 0
1.550741e+00 3.861636e-03 0
1.548517e+00 3.962408e-03 0
1.546248e+00 4.056783e-03 0
1.543937e+00 4.145099e-03 0
1.541586e+00 4.227673e-03 0
1.539197e+00 4.304810e-03 0
1.536772e+00 4.376795e-03 0
1.534313e+00 4.443902e-03 0
1.531822e+00 4.506388e-03 0
1.529301e+00 4.564497e-03 0
1.526752e+00 4.618459e-03 0
1.524176e+00 4.668490e-03 0
1.521575e+00 4.714794e-03 0
1.518950e+00 4.757562e-03 0
1.516302e+00 4.796973e-03 0
1.513633e+00 4.833196e-03 0
1.510944e+00 4.866386e-03 0
1.508237e+00 4.896691e-03 0
1.505511e+00 4.924248e-03 0
1.502769e+00 4.949187e-03 0
1.500012e+00 4.971628e-03 0
1.497239e+00 4.991685e-03 0
1.494453e+00 5.009462e-03 0
1.491654e+00 5.025060e-03 0
1.488843e+00 5.038570e-03 0
1.486021e+00 5.050078e-03 0
1.483189e+00 5.059662e-03 0
1.480346e+00 5.067395e-03 0
1.477495e+00 5.073344e-03 0
1.474635e+00 5.077569e-03 0
1.471768e+00 5.080125e-03 0
1.468893e+00 5.081063e-03 0
1.466013e+00 5.080428e-03 0
1.463126e+00 5.078259e-03 0
1.460234e+00 5.074594e-03 0
1.457338e+00 5.069466e-03 0
1.454438e+00 5.062904e-03 0
1.451534e+00 5.054934e-03 0
1.448627e+00 5.045582e-03 0
1.445718e+00 5.034870e-03 0
1.442807e+00 5.022817e-03 0
1.439895e+00 5.009442e-03 0
1.436981e+00 4.994762e-03 0
1.434068e+00 4.978793e-03 0
1.431154e+00 4.961550e-03 0
1.428242e+00 4.943045e-03 0
1.425330e+00 4.923289e-03 0
1.422420e+00 4.902294e-03 0
1.419513e+00 4.880068e-03 0
1.416608e+00 4.856618e-03 0
1.413706e+00 4.831950e-03 0
1.410808e+00 4.806068e-03 0
1.407914e+00 4.778976e-03 0
1.405024e+00 4.750675e-03 0
1.402140e+00 4.721163e-03 0
1.399262e+00 4.690438e-03 0
1.396389e+00 4.658495e-03 0
1.393524e+00 4.625327e-03 0
1.390665e+00 4.590925e-03 0
1.387814e+00 4.555279e-03 0
1.384971e+00 4.518374e-03 0
1.382137e+00 4.480196e-03 0
1.379313e+00 4.440723e-03 0
1.376498e+00 4.399935e-03 0
1.373693e+00 4.357802e-03 0
1.370900e+00 4.314286e-03 0
1.368118e+00 4.269342e-03 0
1.365349e+00 4.222912e-03 0
1.362592e+00 4.174922e-03 0
1.359849e+00 4.125267e-03 0
1.357120e+00 4.073812e-03 0
1.354406e+00 4.020379e-03 0
1.351708e+00 3.964722e-03 0
1.349027e+00 3.906502e-03 0
1.346364e+00 3.845242e-03 0
1.343721e+00 3.780237e-03 0
1.341098e+00 3.710439e-03 0
1.338498e+00 3.634258e-03 0
1.335924e+00 3.549222e-03 0
1.333377e+00 3.451541e-03 0
1.330860e+00 3.335462e-03 0
1.328321e+00 3.462434e-03 0
1.328321e+00 3.652911e-03 0
2.116206e+00 -3.024044e-04 0
2.116206e+00 -2.950014e-04 0
2.116296e+00 -2.610813e-04 0
2.116375e+00 -1.881255e-04 0
2.116438e+00 -7.434701e-05 0
2.116476e+00 8.281613e-05 0
2.116479e+00 2.874948e-04 0
2.116437e+00 5.455080e-04 0
2.116336e+00 8.640747e-04 0
2.116164e+00 1.251673e-03 0
2.115903e+00 1.717982e-03 0
2.115536e+00 2.273995e-03 0
2.115042e+00 2.932153e-03 0
2.114397e+00 3.706466e-03 0
2.113575e+00 4.612928e-03 0
2.112545e+00 5.669687e-03 0
2.111273e+00 6.897566e-03 0
2.109719e+00 8.321190e-03 0
2.107842e+00 9.969640e-03 0
2.105590e+00 1.187754e-02 0
2.102906e+00 1.408680e-02 0
2.099726e+00 1.664836e-02 0
2.095970e+00 1.962405e-02 0
2.091546e+00 2.308885e-02 0
2.086340e+00 2.713222e-02 0
2.080207e+00 3.185684e-02 0
2.072955e+00 3.737144e-02 0
2.064316e+00 4.376799e-02 0
2.053899e+00 5.106286e-02 0
2.041121e+00 5.905859e-02 0
2.025146e+00 6.705064e-02 0
2.005014e+00 7.331926e-02 0
1.980564e+00 7.471507e-02 0
1.955517e+00 6.833941e-02 0
1.937685e+00 5.615070e-02 0
1.926643e+00 4.297320e-02 0
1.920101e+00 3.140568e-02 0
1.916232e+00 2.215934e-02 0
1.913918e+00 1.508919e-02 0
1.912524e+00 9.792903e-03 0
1.911685e+00 5.858651e-03 0
1.911163e+00 2.948872e-03 0
1.910813e+00 8.152649e-04 0
1.910486e+00 -7.355348e-04 0
1.910132e+00 -1.836358e-03 0
1.909733e+00 -2.566133e-03 0
1.909290e+00 -2.992735e-03 0
1.908804e+00 -3.174171e-03 0
1.908279e+00 -3.159721e-03 0
1.907719e+00 -2.990931e-03 0
1.907126e+00 -2.702503e-03 0
1.906502e+00 -2.323090e-03 0
1.905845e+00 -1.876067e-03 0
1.905154e+00 -1.380983e-03 0
1.904428e+00 -8.549395e-04 0
1.903671e+00 -3.204867e-04 0
1.902887e+00 1.987987e-04 0
1.902072e+00 6.987492e-04 0
1.901208e+00 1.180794e-03 0
1.900278e+00 1.637071e-03 0
1.899276e+00 2.063186e-03 0
1.898199e+00 2.459268e-03 0
1.897047e+00 2.826851e-03 0
1.895818e+00 3.168987e-03 0
1.894516e+00 3.488680e-03 0
1.893142e+00 3.788373e-03 0
1.891702e+00 4.069967e-03 0
1.890196e+00 4.334953e-03 0
1.888630e+00 4.584535e-03 0
1.887005e+00 4.819724e-03 0
1.885325e+00 5.041393e-03 0
1.883592e+00 5.250318e-03 0
1.881808e+00 5.447203e-03 0
1.879978e+00 5.632697e-03 0
1.878102e+00 5.807405e-03 0
1.876183e+00 5.971893e-03 0
1.874224e+00 6.126697e-03 0
1.872225e+00 6.272322e-03 0
1.870190e+00 6.409249e-03 0
1.868120e+00 6.537934e-03 0
1.866016e+00 6.658809e-03 0
1.863881e+00 6.772286e-03 0
1.861716e+00 6.878755e-03 0
1.859522e+00 6.978585e-03 0
1.857301e+00 7.072128e-03 0
1.855054e+00 7.159715e-03 0
1.852782e+00 7.241658e-03 0
1.850487e+00 7.318254e-03 0
1.848169e+00 7.389778e-03 0
1.845830e+00 7.456494e-03 0
1.843471e+00 7.518646e-03 0
1.841092e+00 7.576463e-03 0
1.838695e+00 7.630161e-03 0
1.836280e+00 7.679942e-03 0
1.833849e+00 7.725996e-03 0
1.831402e+00 7.768498e-03 0
1.828939e+00 7.807614e-03 0
1.826461e+00 7.843500e-03 0
1.823970e+00 7.876300e-03 0
1.821466e+00 7.906148e-03 0
1.818948e+00 7.933172e-03 0
1.816419e+00 7.957485e-03 0
1.813878e+00 7.979197e-03 0
1.811326e+00 7.998405e-03 0
1.808764e+00 8.015200e-03 0
1.806191e+00 8.029665e-03 0
1.803609e+00 8.041874e-03 0
1.801018e+00 8.051896e-03 0
1.798418e+00 8.059792e-03 0
1.795810e+00 8.065618e-03 0
1.793195e+00 8.069422e-03 0
1.790572e+00 8.071249e-03 0
1.787942e+00 8.071141e-03 0
1.785305e+00 8.069131e-03 0
1.782662e+00 8.065253e-03 0
1.780014e+00 8.059535e-03 0
1.777360e+00 8.052004e-03 0
1.774701e+00 8.042682e-03 0
1.772037e+00 8.031592e-03 0
1.769369e+00 8.018753e-03 0
1.766697e+00 8.004180e-03 0
1.764022e+00 7.987891e-03 0
1.761343e+00 7.969898e-03 0
1.758661e+00 7.950212e-03 0
1.755977e+00 7.928843e-03 0
1.753291e+00 7.905798e-03 0
1.750604e+00 7.881083e-03 0
1.747914e+00 7.854702e-03 0
1.745224e+00 7.826655e-03 0
1.742533e+00 7.796942e-03 0
1.739842e+00 7.765558e-03 0
1.737151e+00 7.732498e-03 0
1.734461e+00 7.697752e-03 0
1.731771e+00 7.661308e-03 0
1.729083e+00 7.623152e-03 0
1.726396e+00 7.583265e-03 0
1.723711e+00 7.541627e-03 0
1.721029e+00 7.498213e-03 0
1.718350e+00 7.452993e-03 0
1.715674e+00 7.405933e-03 0
1.713001e+00 7.356991e-03 0
1.710333e+00 7.306115e-03 0
1.707670e+00 7.253243e-03 0
1.705012e+00 7.198296e-03 0
1.702359e+00 7.141174e-03 0
1.699713e+00 7.081740e-03 0
1.697073e+00 7.019823e-03 0
1.694440e+00 6.955191e-03 0
1.691815e+00 6.887526e-03 0
1.689198e+00 6.816398e-03 0
1.686590e+00 6.741190e-03 0
1.683992e+00 6.661030e-03 0
1.681405e+00 6.574683e-03 0
1.678829e+00 6.480432e-03 0
1.676265e+00 6.375899e-03 0
1.673714e+00 6.258433e-03 0
1.671175e+00 6.122718e-03 0
1.668648e+00 6.035693e-03 0
1.668648e+00 6.022103e-03 0
2.247489e+00 -4.089813e-04 0
2.247489e+00 -3.986263e-04 0
2.247590e+00 -3.571934e-04 0
2.247684e+00 -2.728988e-04 0
2.247769e+00 -1.422814e-04 0
2.247839e+00 3.869054e-05 0
2.247888e+00 2.754624e-04 0
2.247910e+00 5.753816e-04 0
2.247897e+00 9.470018e-04 0
2.247839e+00 1.400404e-03 0
2.247726e+00 1.947187e-03 0
2.247543e+00 2.600507e-03 0
2.247277e+00 3.375106e-03 0
2.246912e+00 4.287627e-03 0
2.246427e+00 5.356688e-03 0
2.245804e+00 6.603265e-03 0
2.245017e+00 8.051679e-03 0
2.244043e+00 9.730152e-03 0
2.242854e+00 1.167177e-02 0
2.241418e+00 1.391614e-02 0
2.239702e+00 1.651126e-02 0
2.237669e+00 1.951580e-02 0
2.235274e+00 2.300246e-02 0
2.232468e+00 2.706221e-02 0
2.229184e+00 3.180939e-02 0
2.225336e+00 3.738888e-02 0
2.220793e+00 4.398414e-02 0
2.215334e+00 5.182320e-02 0
2.208563e+00 6.116708e-02 0
2.199703e+00 7.222279e-02 0
2.187201e+00 8.478069e-02 0
2.168088e+00 9.702059e-02 0
2.137876e+00 1.024909e-01 0
2.101537e+00 9.175270e-02 0
2.084803e+00 6.999180e-02 0
2.079168e+00 4.991137e-02 0
2.078126e+00 3.457675e-02 0
2.078674e+00 2.350067e-02 0
2.079625e+00 1.559097e-02 0
2.080555e+00 9.928613e-03 0
2.081331e+00 5.860269e-03 0
2.081911e+00 2.939455e-03 0
2.082285e+00 8.594892e-04 0
2.082478e+00 -5.999744e-04 0
2.082499e+00 -1.593368e-03 0
2.082369e+00 -2.222387e-03 0
2.082115e+00 -2.562104e-03 0
2.081757e+00 -2.671294e-03 0
2.081318e+00 -2.597502e-03 0
2.080811e+00 -2.379810e-03 0
2.080251e+00 -2.050475e-03 0
2.079647e+00 -1.635879e-03 0
2.079007e+00 -1.156607e-03 0
2.078333e+00 -6.294846e-04 0
2.077629e+00 -7.830418e-05 0
2.076898e+00 4.789927e-04 0
2.076133e+00 1.037564e-03 0
2.075325e+00 1.589505e-03 0
2.074473e+00 2.125833e-03 0
2.073576e+00 2.639951e-03 0
2.072629e+00 3.127878e-03 0
2.071630e+00 3.588273e-03 0
2.070578e+00 4.021447e-03 0
2.069472e+00 4.428838e-03 0
2.068312e+00 4.812274e-03 0
2.067100e+00 5.173544e-03 0
2.065838e+00 5.514245e-03 0
2.064528e+00 5.835766e-03 0
2.063171e+00 6.139315e-03 0
2.061770e+00 6.425957e-03 0
2.060327e+00 6.696650e-03 0