<?xml version="1.0"?>
<VTKFile type="StructuredGrid">
<StructuredGrid WholeExtent="0 158 0 30 0 0 ">
<Piece Extent="0 158 0 30 0 0 ">
<Points>
<DataArray type="Float64" format="ascii" NumberOfComponents="3">
0.000000e+00 0.000000e+00 0.000000e+00
3.164557e-02 0.000000e+00 0.000000e+00
6.329114e-02 0.000000e+00 0.000000e+00
9.493671e-02 0.000000e+00 0.000000e+00
1.265823e-01 0.000000e+00 0.000000e+00
1.582278e-01 0.000000e+00 0.000000e+00
1.898734e-01 0.000000e+00 0.000000e+00
2.215190e-01 0.000000e+00 0.000000e+00
2.531646e-01 0.000000e+00 0.000000e+00
2.848101e-01 0.000000e+00 0.000000e+00
3.164557e-01 0.000000e+00 0.000000e+00
3.481013e-01 0.000000e+00 0.000000e+00
3.797468e-01 0.000000e+00 0.000000e+00
4.113924e-01 0.000000e+00 0.000000e+00
4.430380e-01 0.000000e+00 0.000000e+00
4.746835e-01 0.000000e+00 0.000000e+00
5.063291e-01 0.000000e+00 0.000000e+00
5.379747e-01 0.000000e+00 0.000000e+00
5.696203e-01 0.000000e+00 0.000000e+00
6.012658e-01 0.000000e+00 0.000000e+00
6.329114e-01 0.000000e+00 0.000000e+00
6.645570e-01 0.000000e+00 0.000000e+00
6.962025e-01 0.000000e+00 0.000000e+00
7.278481e-01 0.000000e+00 0.000000e+00
7.594937e-01 0.000000e+00 0.000000e+00
7.911392e-01 0.000000e+00 0.000000e+00
8.227848e-01 0.000000e+00 0.000000e+00
8.544304e-01 0.000000e+00 0.000000e+00
8.860759e-01 0.000000e+00 0.000000e+00
9.177215e-01 0.000000e+00 0.000000e+00
9.493671e-01 0.000000e+00 0.000000e+00
9.810127e-01 0.000000e+00 0.000000e+00
1.012658e+00 0.000000e+00 0.000000e+00
1.044304e+00 0.000000e+00 0.000000e+00
1.075949e+00 0.000000e+00 0.000000e+00
1.107595e+00 0.000000e+00 0.000000e+00
1.139241e+00 0.000000e+00 0.000000e+00
1.170886e+00 0.000000e+00 0.000000e+00
1.202532e+00 0.000000e+00 0.000000e+00
1.234177e+00 0.000000e+00 0.000000e+00
1.265823e+00 0.000000e+00 0.000000e+00
1.297468e+00 0.000000e+00 0.000000e+00
1.329114e+00 0.000000e+00 0.000000e+00
1.360759e+00 0.000000e+00 0.000000e+00
1.392405e+00 0.000000e+00 0.000000e+00
1.424051e+00 0.000000e+00 0.000000e+00
1.455696e+00 0.000000e+00 0.000000e+00
1.487342e+00 0.000000e+00 0.000000e+00
1.518987e+00 0.000000e+00 0.000000e+00
1.550633e+00 0.000000e+00 0.000000e+00
1.582278e+00 0.000000e+00 0.000000e+00
1.613924e+00 0.000000e+00 0.000000e+00
1.645570e+00 0.000000e+00 0.000000e+00
1.677215e+00 0.000000e+00 0.000000e+00
1.708861e+00 0.000000e+00 0.000000e+00
1.740506e+00 0.000000e+00 0.000000e+00
1.772152e+00 0.000000e+00 0.000000e+00
1.803797e+00 0.000000e+00 0.000000e+00
1.835443e+00 0.000000e+00 0.000000e+00
1.867089e+00 0.000000e+00 0.000000e+00
1.898734e+00 0.000000e+00 0.000000e+00
1.930380e+00 0.000000e+00 0.000000e+00
1.962025e+00 0.000000e+00 0.000000e+00
1.993671e+00 0.000000e+00 0.000000e+00
2.025316e+00 0.000000e+00 0.000000e+00
2.056962e+00 0.000000e+00 0.000000e+00
2.088608e+00 0.000000e+00 0.000000e+00
2.120253e+00 0.000000e+00 0.000000e+00
2.151899e+00 0.000000e+00 0.000000e+00
2.183544e+00 0.000000e+00 0.000000e+00
2.215190e+00 0.000000e+00 0.000000e+00
2.246835e+00 0.000000e+00 0.000000e+00
2.278481e+00 0.000000e+00 0.000000e+00
2.310127e+00 0.000000e+00 0.000000e+00
2.341772e+00 0.000000e+00 0.000000e+00
2.373418e+00 0.000000e+00 0.000000e+00
2.405063e+00 0.000000e+00 0.000000e+00
2.436709e+00 0.000000e+00 0.000000e+00
2.468354e+00 0.000000e+00 0.000000e+00
2.500000e+00 0.000000e+00 0.000000e+00
2.531646e+00 0.000000e+00 0.000000e+00
2.563291e+00 0.000000e+00 0.000000e+00
2.594937e+00 0.000000e+00 0.000000e+00
2.626582e+00 0.000000e+00 0.000000e+00
2.658228e+00 0.000000e+00 0.000000e+00
2.689873e+00 0.000000e+00 0.000000e+00
2.721519e+00 0.000000e+00 0.000000e+00
2.753165e+00 0.000000e+00 0.000000e+00
2.784810e+00 0.000000e+00 0.000000e+00
2.816456e+00 0.000000e+00 0.000000e+00
2.848101e+00 0.000000e+00 0.000000e+00
2.879747e+00 0.000000e+00 0.000000e+00
2.911392e+00 0.000000e+00 0.000000e+00
2.943038e+00 0.000000e+00 0.000000e+00
2.974684e+00 0.000000e+00 0.000000e+00
3.006329e+00 0.000000e+00 0.000000e+00
3.037975e+00 0.000000e+00 0.000000e+00
3.069620e+00 0.000000e+00 0.000000e+00
3.101266e+00 0.000000e+00 0.000000e+00
3.132911e+00 0.000000e+00 0.000000e+00
3.164557e+00 0.000000e+00 0.000000e+00
3.196203e+00 0.000000e+00 0.000000e+00
3.227848e+00 0.000000e+00 0.000000e+00
3.259494e+00 0.000000e+00 0.000000e+00
3.291139e+00 0.000000e+00 0.000000e+00
3.322785e+00 0.000000e+00 0.000000e+00
3.354430e+00 0.000000e+00 0.000000e+00
3.386076e+00 0.000000e+00 0.000000e+00
3.417722e+00 0.000000e+00 0.000000e+00
3.449367e+00 0.000000e+00 0.000000e+00
3.481013e+00 0.000000e+00 0.000000e+00
3.512658e+00 0.000000e+00 0.000000e+00
3.544304e+00 0.000000e+00 0.000000e+00
3.575949e+00 0.000000e+00 0.000000e+00
3.607595e+00 0.000000e+00 0.000000e+00
3.639241e+00 0.000000e+00 0.000000e+00
3.670886e+00 0.000000e+00 0.000000e+00
3.702532e+00 0.000000e+00 0.000000e+00
3.734177e+00 0.000000e+00 0.000000e+00
3.765823e+00 0.000000e+00 0.000000e+00
3.797468e+00 0.000000e+00 0.000000e+00
3.829114e+00 0.000000e+00 0.000000e+00
3.860759e+00 0.000000e+00 0.000000e+00
3.892405e+00 0.000000e+00 0.000000e+00
3.924051e+00 0.000000e+00 0.000000e+00
3.955696e+00 0.000000e+00 0.000000e+00
3.987342e+00 0.000000e+00 0.000000e+00
4.018987e+00 0.000000e+00 0.000000e+00
4.050633e+00 0.000000e+00 0.000000e+00
4.082278e+00 0.000000e+00 0.000000e+00
4.113924e+00 0.000000e+00 0.000000e+00
4.145570e+00 0.000000e+00 0.000000e+00
4.177215e+00 0.000000e+00 0.000000e+00
4.208861e+00 0.000000e+00 0.000000e+00
4.240506e+00 0.000000e+00 0.000000e+00
4.272152e+00 0.000000e+00 0.000000e+00
4.303797e+00 0.000000e+00 0.000000e+00
4.335443e+00 0.000000e+00 0.000000e+00
4.367089e+00 0.000000e+00 0.000000e+00
4.398734e+00 0.000000e+00 0.000000e+00
4.430380e+00 0.000000e+00 0.000000e+00
4.462025e+00 0.000000e+00 0.000000e+00
4.493671e+00 0.000000e+00 0.000000e+00
4.525316e+00 0.000000e+00 0.000000e+00
4.556962e+00 0.000000e+00 0.000000e+00
4.588608e+00 0.000000e+00 0.000000e+00
4.620253e+00 0.000000e+00 0.000000e+00
4.651899e+00 0.000000e+00 0.000000e+00
4.683544e+00 0.000000e+00 0.000000e+00
4.715190e+00 0.000000e+00 0.000000e+00
4.746835e+00 0.000000e+00 0.000000e+00
4.778481e+00 0.000000e+00 0.000000e+00
4.810127e+00 0.000000e+00 0.000000e+00
4.841772e+00 0.000000e+00 0.000000e+00
4.873418e+00 0.000000e+00 0.000000e+00
4.905063e+00 0.000000e+00 0.000000e+00
4.936709e+00 0.000000e+00 0.000000e+00
4.968354e+00 0.000000e+00 0.000000e+00
5.000000e+00 0.000000e+00 0.000000e+00
0.000000e+00 3.333333e-02 0.000000e+00
3.164557e-02 3.333333e-02 0.000000e+00
6.329114e-02 3.333333e-02 0.000000e+00
9.493671e-02 3.333333e-02 0.000000e+00
1.265823e-01 3.333333e-02 0.000000e+00
1.582278e-01 3.333333e-02 0.000000e+00
1.898734e-01 3.333333e-02 0.000000e+00
2.215190e-01 3.333333e-02 0.000000e+00
2.531646e-01 3.333333e-02 0.000000e+00
2.848101e-01 3.333333e-02 0.000000e+00
3.164557e-01 3.333333e-02 0.000000e+00
3.481013e-01 3.333333e-02 0.000000e+00
3.797468e-01 3.333333e-02 0.000000e+00
4.113924e-01 3.333333e-02 0.000000e+00
4.430380e-01 3.333333e-02 0.000000e+00
4.746835e-01 3.333333e-02 0.000000e+00
5.063291e-01 3.333333e-02 0.000000e+00
5.379747e-01 3.333333e-02 0.000000e+00
5.696203e-01 3.333333e-02 0.000000e+00
6.012658e-01 3.333333e-02 0.000000e+00
6.329114e-01 3.333333e-02 0.000000e+00
6.645570e-01 3.333333e-02 0.000000e+00
6.962025e-01 3.333333e-02 0.000000e+00
7.278481e-01 3.333333e-02 0.000000e+00
7.594937e-01 3.333333e-02 0.000000e+00
7.911392e-01 3.333333e-02 0.000000e+00
8.227848e-01 3.333333e-02 0.000000e+00
8.544304e-01 3.333333e-02 0.000000e+00
8.860759e-01 3.333333e-02 0.000000e+00
9.177215e-01 3.333333e-02 0.000000e+00
9.493671e-01 3.333333e-02 0.000000e+00
9.810127e-01 3.333333e-02 0.000000e+00
1.012658e+00 3.333333e-02 0.000000e+00
1.044304e+00 3.333333e-02 0.000000e+00
1.075949e+00 3.333333e-02 0.000000e+00
1.107595e+00 3.333333e-02 0.000000e+00
1.139241e+00 3.333333e-02 0.000000e+00
1.170886e+00 3.333333e-02 0.000000e+00
1.202532e+00 3.333333e-02 0.000000e+00
1.234177e+00 3.333333e-02 0.000000e+00
1.265823e+00 3.333333e-02 0.000000e+00
1.297468e+00 3.333333e-02 0.000000e+00
1.329114e+00 3.333333e-02 0.000000e+00
1.360759e+00 3.333333e-02 0.000000e+00
1.392405e+00 3.333333e-02 0.000000e+00
1.424051e+00 3.333333e-02 0.000000e+00
1.455696e+00 3.333333e-02 0.000000e+00
1.487342e+00 3.333333e-02 0.000000e+00
1.518987e+00 3.333333e-02 0.000000e+00
1.550633e+00 3.333333e-02 0.000000e+00
1.582278e+00 3.333333e-02 0.000000e+00
1.613924e+00 3.333333e-02 0.000000e+00
1.645570e+00 3.333333e-02 0.000000e+00
1.677215e+00 3.333333e-02 0.000000e+00
1.708861e+00 3.333333e-02 0.000000e+00
1.740506e+00 3.333333e-02 0.000000e+00
1.772152e+00 3.333333e-02 0.000000e+00
1.803797e+00 3.333333e-02 0.000000e+00
1.835443e+00 3.333333e-02 0.000000e+00
1.867089e+00 3.333333e-02 0.000000e+00
1.898734e+00 3.333333e-02 0.000000e+00
1.930380e+00 3.333333e-02 0.000000e+00
1.962025e+00 3.333333e-02 0.000000e+00
1.993671e+00 3.333333e-02 0.000000e+00
2.025316e+00 3.333333e-02 0.000000e+00
2.056962e+00 3.333333e-02 0.000000e+00
2.088608e+00 3.333333e-02 0.000000e+00
2.120253e+00 3.333333e-02 0.000000e+00
2.151899e+00 3.333333e-02 0.000000e+00
2.183544e+00 3.333333e-02 0.000000e+00
2.215190e+00 3.333333e-02 0.000000e+00
2.246835e+00 3.333333e-02 0.000000e+00
2.278481e+00 3.333333e-02 0.000000e+00
2.310127e+00 3.333333e-02 0.000000e+00
2.341772e+00 3.333333e-02 0.000000e+00
2.373418e+00 3.333333e-02 0.000000e+00
2.405063e+00 3.333333e-02 0.000000e+00
2.436709e+00 3.333333e-02 0.000000e+00
2.468354e+00 3.333333e-02 0.000000e+00
2.500000e+00 3.333333e-02 0.000000e+00
2.531646e+00 3.333333e-02 0.000000e+00
2.563291e+00 3.333333e-02 0.000000e+00
2.594937e+00 3.333333e-02 0.000000e+00
2.626582e+00 3.333333e-02 0.000000e+00
2.658228e+00 3.333333e-02 0.000000e+00
2.689873e+00 3.333333e-02 0.000000e+00
2.721519e+00 3.333333e-02 0.000000e+00
2.753165e+00 3.333333e-02 0.000000e+00
2.784810e+00 3.333333e-02 0.000000e+00
2.816456e+00 3.333333e-02 0.000000e+00
2.848101e+00 3.333333e-02 0.000000e+00
2.879747e+00 3.333333e-02 0.000000e+00
[...]
<PointData>
<DataArray Name="Velocity" type="Float64" format="ascii" NumberOfComponents="3">
0.000000e+00 0.000000e+00 0
0.000000e+00 0.000000e+00 0
0.000000e+00 0.000000e+00 0
0.000000e+00 0.000000e+00 0
0.000000e+00 0.000000e+00 0
0.000000e+00 0.000000e+00 0
0.000000e+00 0.000000e+00 0
0.000000e+00 0.000000e+00 0
0.000000e+00 0.000000e+00 0
0.000000e+00 0.000000e+00 0
0.000000e+00 0.000000e+00 0
0.000000e+00 0.000000e+00 0
0.000000e+00 0.000000e+00 0
0.000000e+00 0.000000e+00 0
0.000000e+00 0.000000e+00 0
0.000000e+00 0.000000e+00 0
0.000000e+00 0.000000e+00 0
0.000000e+00 0.000000e+00 0
0.000000e+00 0.000000e+00 0
5.028128e-17 0.000000e+00 0
0.000000e+00 0.000000e+00 0
0.000000e+00 0.000000e+00 0
0.000000e+00 0.000000e+00 0
2.213586e-17 0.000000e+00 0
0.000000e+00 0.000000e+00 0
0.000000e+00 0.000000e+00 0
0.000000e+00 0.000000e+00 0
-2.856124e-17 0.000000e+00 0
0.000000e+00 0.000000e+00 0
0.000000e+00 0.000000e+00 0
0.000000e+00 0.000000e+00 0
1.109848e-18 0.000000e+00 0
0.000000e+00 0.000000e+00 0
0.000000e+00 0.000000e+00 0
0.000000e+00 0.000000e+00 0
0.000000e+00 0.000000e+00 0
0.000000e+00 0.000000e+00 0
0.000000e+00 0.000000e+00 0
3.841067e-17 0.000000e+00 0
0.000000e+00 0.000000e+00 0
0.000000e+00 0.000000e+00 0
0.000000e+00 0.000000e+00 0
0.000000e+00 0.000000e+00 0
0.000000e+00 0.000000e+00 0
0.000000e+00 0.000000e+00 0
0.000000e+00 0.000000e+00 0
3.043359e-17 0.000000e+00 0
0.000000e+00 0.000000e+00 0
0.000000e+00 0.000000e+00 0
0.000000e+00 0.000000e+00 0
0.000000e+00 0.000000e+00 0
0.000000e+00 0.000000e+00 0
0.000000e+00 0.000000e+00 0
0.000000e+00 0.000000e+00 0
5.197936e-17 0.000000e+00 0
0.000000e+00 0.000000e+00 0
0.000000e+00 0.000000e+00 0
0.000000e+00 0.000000e+00 0
0.000000e+00 0.000000e+00 0
0.000000e+00 0.000000e+00 0
0.000000e+00 0.000000e+00 0
0.000000e+00 0.000000e+00 0
5.132684e-17 0.000000e+00 0
0.000000e+00 0.000000e+00 0
0.000000e+00 0.000000e+00 0
0.000000e+00 0.000000e+00 0
0.000000e+00 0.000000e+00 0
0.000000e+00 0.000000e+00 0
0.000000e+00 0.000000e+00 0
0.000000e+00 0.000000e+00 0
0.000000e+00 0.000000e+00 0
0.000000e+00 0.000000e+00 0
0.000000e+00 0.000000e+00 0
0.000000e+00 0.000000e+00 0
0.000000e+00 0.000000e+00 0
0.000000e+00 0.000000e+00 0
0.000000e+00 0.000000e+00 0
0.000000e+00 0.000000e+00 0
0.000000e+00 0.000000e+00 0
0.000000e+00 0.000000e+00 0
0.000000e+00 0.000000e+00 0
0.000000e+00 0.000000e+00 0
0.000000e+00 0.000000e+00 0
0.000000e+00 0.000000e+00 0
0.000000e+00 0.000000e+00 0
0.000000e+00 0.000000e+00 0
0.000000e+00 0.000000e+00 0
0.000000e+00 0.000000e+00 0
0.000000e+00 0.000000e+00 0
0.000000e+00 0.000000e+00 0
0.000000e+00 0.000000e+00 0
0.000000e+00 0.000000e+00 0
0.000000e+00 0.000000e+00 0
0.000000e+00 0.000000e+00 0
0.000000e+00 0.000000e+00 0
0.000000e+00 0.000000e+00 0
0.000000e+00 0.000000e+00 0
0.000000e+00 0.000000e+00 0
0.000000e+00 0.000000e+00 0
0.000000e+00 0.000000e+00 0
0.000000e+00 0.000000e+00 0
0.000000e+00 0.000000e+00 0
0.000000e+00 0.000000e+00 0
0.000000e+00 0.000000e+00 0
0.000000e+00 0.000000e+00 0
0.000000e+00 0.000000e+00 0
0.000000e+00 0.000000e+00 0
0.000000e+00 0.000000e+00 0
0.000000e+00 0.000000e+00 0
0.000000e+00 0.000000e+00 0
0.000000e+00 0.000000e+00 0
0.000000e+00 0.000000e+00 0
0.000000e+00 0.000000e+00 0
0.000000e+00 0.000000e+00 0
0.000000e+00 0.000000e+00 0
0.000000e+00 0.000000e+00 0
0.000000e+00 0.000000e+00 0
0.000000e+00 0.000000e+00 0
0.000000e+00 0.000000e+00 0
0.000000e+00 0.000000e+00 0
0.000000e+00 0.000000e+00 0
0.000000e+00 0.000000e+00 0
0.000000e+00 0.000000e+00 0
0.000000e+00 0.000000e+00 0
0.000000e+00 0.000000e+00 0
0.000000e+00 0.000000e+00 0
0.000000e+00 0.000000e+00 0
0.000000e+00 0.000000e+00 0
0.000000e+00 0.000000e+00 0
0.000000e+00 0.000000e+00 0
0.000000e+00 0.000000e+00 0
0.000000e+00 0.000000e+00 0
0.000000e+00 0.000000e+00 0
0.000000e+00 0.000000e+00 0
0.000000e+00 0.000000e+00 0
0.000000e+00 0.000000e+00 0
0.000000e+00 0.000000e+00 0
0.000000e+00 0.000000e+00 0
0.000000e+00 0.000000e+00 0
0.000000e+00 0.000000e+00 0
0.000000e+00 0.000000e+00 0
0.000000e+00 0.000000e+00 0
0.000000e+00 0.000000e+00 0
0.000000e+00 0.000000e+00 0
0.000000e+00 0.000000e+00 0
0.000000e+00 0.000000e+00 0
0.000000e+00 0.000000e+00 0
0.000000e+00 0.000000e+00 0
0.000000e+00 0.000000e+00 0
0.000000e+00 0.000000e+00 0
0.000000e+00 0.000000e+00 0
0.000000e+00 0.000000e+00 0
0.000000e+00 0.000000e+00 0
0.000000e+00 0.000000e+00 0
0.000000e+00 0.000000e+00 0
0.000000e+00 0.000000e+00 0
0.000000e+00 0.000000e+00 0
0.000000e+00 0.000000e+00 0
0.000000e+00 0.000000e+00 0
2.008775e+00 -2.068085e-05 0
2.008775e+00 -2.083499e-05 0
2.008791e+00 -1.395816e-05 0
2.008795e+00 4.159510e-06 0
2.008777e+00 3.110070e-05 0
2.008729e+00 6.807425e-05 0
2.008640e+00 1.161232e-04 0
2.008499e+00 1.764342e-04 0
2.008295e+00 2.503781e-04 0
2.008013e+00 3.395175e-04 0
2.007638e+00 4.456056e-04 0
2.007153e+00 5.705986e-04 0
2.006539e+00 7.167182e-04 0
2.005775e+00 8.864994e-04 0
2.004837e+00 1.082814e-03 0
2.003699e+00 1.308917e-03 0
2.002329e+00 1.568504e-03 0
2.000695e+00 1.865804e-03 0
1.998759e+00 2.205762e-03 0
1.996476e+00 2.594255e-03 0
1.993798e+00 3.038364e-03 0
1.990668e+00 3.546611e-03 0
1.987021e+00 4.129157e-03 0
1.982779e+00 4.797899e-03 0
1.977855e+00 5.566129e-03 0
1.972146e+00 6.447462e-03 0
1.965535e+00 7.452861e-03 0
1.957896e+00 8.583753e-03 0
1.949104e+00 9.818536e-03 0
1.939065e+00 1.108876e-02 0
1.927778e+00 1.224509e-02 0
1.915434e+00 1.303048e-02 0
1.902563e+00 1.311648e-02 0
1.890094e+00 1.228825e-02 0
1.879055e+00 1.068641e-02 0
1.869976e+00 8.720381e-03 0
1.862895e+00 6.766493e-03 0
1.857578e+00 5.043085e-03 0
1.853704e+00 3.628245e-03 0
1.850956e+00 2.516717e-03 0
1.849065e+00 1.666304e-03 0
1.847818e+00 1.023993e-03 0
1.847050e+00 5.353771e-04 0
1.846643e+00 1.154312e-04 0
1.846504e+00 -2.612316e-04 0
1.846577e+00 -5.532846e-04 0
1.846802e+00 -7.576124e-04 0
1.847129e+00 -8.860289e-04 0
1.847513e+00 -9.503811e-04 0
1.847918e+00 -9.619093e-04 0
1.848313e+00 -9.307831e-04 0
1.848677e+00 -8.659043e-04 0
1.848989e+00 -7.748680e-04 0
1.849235e+00 -6.639515e-04 0
1.849407e+00 -5.377550e-04 0
1.849496e+00 -3.993898e-04 0
1.849505e+00 -2.543157e-04 0
1.849442e+00 -1.174150e-04 0
1.849312e+00 -1.122660e-05 0
1.849121e+00 6.446826e-05 0
1.848872e+00 1.269936e-04 0
1.848570e+00 1.832694e-04 0
1.848219e+00 2.354873e-04 0
1.847821e+00 2.844846e-04 0
1.847378e+00 3.306724e-04 0
1.846893e+00 3.743082e-04 0
1.846369e+00 4.155689e-04 0
1.845808e+00 4.545681e-04 0
1.845211e+00 4.913730e-04 0
1.844580e+00 5.260321e-04 0
1.843918e+00 5.586052e-04 0
1.843226e+00 5.891796e-04 0
1.842506e+00 6.178644e-04 0
1.841760e+00 6.447696e-04 0
1.840990e+00 6.699854e-04 0
1.840196e+00 6.935740e-04 0
1.839381e+00 7.155791e-04 0
1.838545e+00 7.360460e-04 0
1.837691e+00 7.550377e-04 0
1.836819e+00 7.726371e-04 0
1.835931e+00 7.889352e-04 0
1.835028e+00 8.040120e-04 0
1.834110e+00 8.179264e-04 0
1.833180e+00 8.307202e-04 0
1.832238e+00 8.424315e-04 0
1.831285e+00 8.531080e-04 0
1.830321e+00 8.628095e-04 0
1.829349e+00 8.715994e-04 0
1.828368e+00 8.795338e-04 0
1.827380e+00 8.866552e-04 0
1.826384e+00 8.929959e-04 0
1.825383e+00 8.985865e-04 0
1.824376e+00 9.034634e-04 0
1.823364e+00 9.076699e-04 0
1.822348e+00 9.112508e-04 0
1.821328e+00 9.142451e-04 0
1.820306e+00 9.166818e-04 0
1.819280e+00 9.185820e-04 0
1.818252e+00 9.199650e-04 0
1.817223e+00 9.208551e-04 0
1.816192e+00 9.212827e-04 0
1.815161e+00 9.212808e-04 0
1.814129e+00 9.208778e-04 0
1.813097e+00 9.200936e-04 0
1.812065e+00 9.189415e-04 0
1.811034e+00 9.174337e-04 0
1.810003e+00 9.155860e-04 0
1.808974e+00 9.134187e-04 0
1.807947e+00 9.109534e-04 0
1.806921e+00 9.082079e-04 0
1.805897e+00 9.051946e-04 0
1.804876e+00 9.019218e-04 0
1.803857e+00 8.983975e-04 0
1.802841e+00 8.946320e-04 0
1.801828e+00 8.906381e-04 0
1.800818e+00 8.864285e-04 0
1.799812e+00 8.820140e-04 0
1.798809e+00 8.774021e-04 0
1.797810e+00 8.725982e-04 0
1.796815e+00 8.676069e-04 0
1.795824e+00 8.624333e-04 0
1.794838e+00 8.570833e-04 0
1.793856e+00 8.515635e-04 0
1.792878e+00 8.458799e-04 0
1.791906e+00 8.400372e-04 0
1.790938e+00 8.340387e-04 0
1.789976e+00 8.278863e-04 0
1.789018e+00 8.215818e-04 0
1.788067e+00 8.151268e-04 0
1.787120e+00 8.085232e-04 0
1.786180e+00 8.017730e-04 0
1.785245e+00 7.948778e-04 0
1.784317e+00 7.878388e-04 0
1.783394e+00 7.806564e-04 0
1.782478e+00 7.733310e-04 0
1.781568e+00 7.658624e-04 0
1.780665e+00 7.582502e-04 0
1.779768e+00 7.504936e-04 0
1.778878e+00 7.425912e-04 0
1.777996e+00 7.345410e-04 0
1.777120e+00 7.263397e-04 0
1.776252e+00 7.179828e-04 0
1.775391e+00 7.094635e-04 0
1.774538e+00 7.007715e-04 0
1.773693e+00 6.918918e-04 0
1.772855e+00 6.828018e-04 0
1.772026e+00 6.734684e-04 0
1.771205e+00 6.638422e-04 0
1.770394e+00 6.538483e-04 0
1.769591e+00 6.433739e-04 0
1.768798e+00 6.322415e-04 0
1.768015e+00 6.201690e-04 0
1.767244e+00 6.066816e-04 0
1.766486e+00 5.909213e-04 0
1.765744e+00 5.710243e-04 0
1.765021e+00 5.434959e-04 0
1.764325e+00 4.761368e-04 0
1.763667e+00 5.374269e-04 0
1.763667e+00 6.498574e-04 0
3.248108e+00 -4.141386e-05 0
3.248108e+00 -3.772620e-05 0
3.248123e+00 -2.084005e-05 0
3.248127e+00 1.482157e-05 0
3.248111e+00 6.951807e-05 0
3.248067e+00 1.445743e-04 0
3.247986e+00 2.418596e-04 0
3.247859e+00 3.636820e-04 0
3.247674e+00 5.127689e-04 0
3.247419e+00 6.922569e-04 0
3.247081e+00 9.056932e-04 0
3.246643e+00 1.157089e-03 0
3.246090e+00 1.450970e-03 0
3.245400e+00 1.792430e-03 0
3.244554e+00 2.187208e-03 0
3.243526e+00 2.641789e-03 0
3.242290e+00 3.163545e-03 0
3.240816e+00 3.760997e-03 0
3.239068e+00 4.444134e-03 0
3.237009e+00 5.224834e-03 0
3.234594e+00 6.117367e-03 0
3.231772e+00 7.138885e-03 0
3.228485e+00 8.309932e-03 0
3.224664e+00 9.654729e-03 0
3.220229e+00 1.120088e-02 0
3.215083e+00 1.297754e-02 0
3.209114e+00 1.501001e-02 0
3.202190e+00 1.730707e-02 0
3.194158e+00 1.983427e-02 0
3.184863e+00 2.246330e-02 0
3.174184e+00 2.489173e-02 0
3.162162e+00 2.655953e-02 0
3.149262e+00 2.669192e-02 0
3.136741e+00 2.476186e-02 0
3.126223e+00 2.119068e-02 0
3.118130e+00 1.702231e-02 0
3.112178e+00 1.305908e-02 0
3.107897e+00 9.681276e-03 0
3.104858e+00 6.975924e-03 0
3.102723e+00 4.886217e-03 0
3.101247e+00 3.305531e-03 0
3.100248e+00 2.122550e-03 0
3.099594e+00 1.237278e-03 0
3.099183e+00 5.750208e-04 0
3.098898e+00 7.007688e-05 0
3.098681e+00 -3.136341e-04 0
3.098509e+00 -5.815478e-04 0
3.098361e+00 -7.485716e-04 0
3.098223e+00 -8.307480e-04 0
3.098083e+00 -8.431862e-04 0
3.097932e+00 -7.993902e-04 0
3.097764e+00 -7.111286e-04 0
3.097572e+00 -5.885628e-04 0
3.097354e+00 -4.405630e-04 0
3.097107e+00 -2.743466e-04 0
3.096838e+00 -1.031221e-04 0
3.096549e+00 5.705132e-05 0
3.096243e+00 2.027677e-04 0
3.095912e+00 3.380921e-04 0
3.095541e+00 4.638126e-04 0
3.095124e+00 5.799668e-04 0
3.094662e+00 6.882008e-04 0
3.094156e+00 7.898627e-04 0
3.093610e+00 8.857869e-04 0
3.093023e+00 9.765032e-04 0
3.092400e+00 1.062375e-03 0
3.091741e+00 1.143659e-03 0
3.091049e+00 1.220538e-03 0
3.090324e+00 1.293155e-03 0
3.089570e+00 1.361641e-03 0
3.088787e+00 1.426146e-03 0
3.087977e+00 1.486843e-03 0
3.087142e+00 1.543912e-03 0
3.086283e+00 1.597525e-03 0
3.085401e+00 1.647827e-03 0
3.084499e+00 1.694938e-03 0
3.083577e+00 1.738972e-03 0
3.082636e+00 1.780052e-03 0
3.081677e+00 1.818318e-03 0
3.080703e+00 1.853925e-03 0
3.079713e+00 1.887017e-03 0
3.078710e+00 1.917720e-03 0
3.077693e+00 1.946139e-03 0
3.076664e+00 1.972368e-03 0
3.075623e+00 1.996506e-03 0
3.074572e+00 2.018659e-03 0
3.073512e+00 2.038941e-03 0
3.072442e+00 2.057458e-03 0
3.071364e+00 2.074301e-03 0
3.070279e+00 2.089549e-03 0
3.069186e+00 2.103270e-03 0
3.068088e+00 2.115536e-03 0
3.066983e+00 2.126428e-03 0
3.065874e+00 2.136024e-03 0
3.064760e+00 2.144402e-03 0
3.063642e+00 2.151625e-03 0
3.062520e+00 2.157747e-03 0
3.061395e+00 2.162813e-03 0
3.060267e+00 2.166873e-03 0
3.059137e+00 2.169980e-03 0
3.058005e+00 2.172193e-03 0
3.056871e+00 2.173564e-03 0
3.055736e+00 2.174139e-03 0
3.054601e+00 2.173953e-03 0
3.053464e+00 2.173037e-03 0
3.052327e+00 2.171423e-03 0
3.051191e+00 2.169145e-03 0
3.050054e+00 2.166242e-03 0
3.048918e+00 2.162749e-03 0
3.047783e+00 2.158695e-03 0
3.046649e+00 2.154101e-03 0
3.045516e+00 2.148987e-03 0
3.044384e+00 2.143374e-03 0
3.043254e+00 2.137283e-03 0
3.042126e+00 2.130739e-03 0
3.041000e+00 2.123761e-03 0
3.039876e+00 2.116368e-03 0
3.038755e+00 2.108571e-03 0
3.037636e+00 2.100385e-03 0
3.036520e+00 2.091818e-03 0
3.035407e+00 2.082883e-03 0
3.034297e+00 2.073592e-03 0
3.033190e+00 2.063955e-03 0
3.032086e+00 2.053983e-03 0
3.030986e+00 2.043681e-03 0
3.029890e+00 2.033056e-03 0
3.028798e+00 2.022113e-03 0
3.027709e+00 2.010855e-03 0
3.026625e+00 1.999285e-03 0
3.025545e+00 1.987408e-03 0
3.024469e+00 1.975228e-03 0
3.023398e+00 1.962745e-03 0
3.022331e+00 1.949961e-03 0
3.021269e+00 1.936878e-03 0
3.020213e+00 1.923494e-03 0
3.019161e+00 1.909809e-03 0
3.018114e+00 1.895822e-03 0
3.017073e+00 1.881532e-03 0
3.016037e+00 1.866936e-03 0
3.015007e+00 1.852029e-03 0
3.013983e+00 1.836804e-03 0
3.012964e+00 1.821252e-03 0
3.011952e+00 1.805358e-03 0
3.010946e+00 1.789103e-03 0
3.009946e+00 1.772456e-03 0
3.008953e+00 1.755372e-03 0
3.007967e+00 1.737785e-03 0
3.006987e+00 1.719598e-03 0
3.006015e+00 1.700663e-03 0
3.005051e+00 1.680757e-03 0
3.004094e+00 1.659538e-03 0
3.003146e+00 1.636464e-03 0
3.002207e+00 1.610653e-03 0
3.001279e+00 1.580599e-03 0
3.000362e+00 1.543647e-03 0
2.999458e+00 1.494829e-03 0
2.998568e+00 1.426078e-03 0
2.997664e+00 1.408913e-03 0
2.997664e+00 1.432308e-03 0
3.975714e+00 -6.454720e-05 0
3.975714e+00 -5.819061e-05 0
3.975735e+00 -3.311705e-05 0
3.975746e+00 1.712344e-05 0
3.975743e+00 9.379471e-05 0
3.975720e+00 1.988583e-04 0
3.975669e+00 3.349219e-04 0
3.975585e+00 5.052237e-04 0
3.975457e+00 7.136070e-04 0
3.975278e+00 9.645024e-04 0
3.975036e+00 1.262952e-03 0
3.974720e+00 1.614644e-03 0
3.974317e+00 2.025951e-03 0
3.973812e+00 2.504009e-03 0
3.973188e+00 3.056805e-03 0
3.972428e+00 3.693309e-03 0
3.971510e+00 4.423737e-03 0
3.970411e+00 5.259871e-03 0
3.969108e+00 6.215519e-03 0
3.967570e+00 7.307108e-03 0
3.965765e+00 8.554366e-03 0
3.963658e+00 9.981146e-03 0
3.961205e+00 1.161637e-02 0
3.958357e+00 1.349496e-02 0
3.955054e+00 1.565846e-02 0
3.951220e+00 1.815457e-02 0
3.946759e+00 2.103352e-02 0
3.941540e+00 2.433708e-02 0
3.935374e+00 2.806943e-02 0
3.927982e+00 3.212826e-02 0
3.918966e+00 3.615666e-02 0
3.907869e+00 3.928174e-02 0
3.894644e+00 3.989387e-02 0
3.881265e+00 3.655674e-02 0
3.871562e+00 3.028945e-02 0
3.865345e+00 2.351357e-02 0
3.861489e+00 1.754493e-02 0
3.859080e+00 1.275427e-02 0
3.857545e+00 9.078227e-03 0
3.856551e+00 6.319925e-03 0
3.855906e+00 4.273876e-03 0
3.855490e+00 2.765454e-03 0
3.855229e+00 1.657604e-03 0
3.855062e+00 8.486221e-04 0
3.854951e+00 2.666743e-04 0
3.854850e+00 -1.436845e-04 0
3.854743e+00 -4.200726e-04 0
3.854622e+00 -5.846966e-04 0
3.854482e+00 -6.574942e-04 0
3.854323e+00 -6.558306e-04 0
3.854143e+00 -5.946260e-04 0
3.853942e+00 -4.866005e-04 0
3.853721e+00 -3.426808e-04 0
3.853481e+00 -1.735991e-04 0
3.853226e+00 5.853444e-06 0
3.852956e+00 1.877445e-04 0
3.852666e+00 3.718883e-04 0
3.852348e+00 5.535812e-04 0
3.851998e+00 7.285447e-04 0
3.851615e+00 8.952032e-04 0
3.851198e+00 1.053007e-03 0
3.850746e+00 1.202300e-03 0
3.850261e+00 1.343667e-03 0
3.849743e+00 1.477642e-03 0
3.849194e+00 1.604665e-03 0
3.848616e+00 1.725084e-03 0
3.848009e+00 1.839169e-03 0
3.847376e+00 1.947137e-03 0
3.846717e+00 2.049182e-03 0
3.846035e+00 2.145504e-03 0
3.845330e+00 2.236323e-03 0
3.844603e+00 2.321875e-03 0
3.843856e+00 2.402394e-03 0
3.843090e+00 2.478096e-03 0
3.842306e+00 2.549170e-03 0
3.841506e+00 2.615788e-03 0
3.840689e+00 2.678128e-03 0
3.839858e+00 2.736378e-03 0
3.839013e+00 2.790741e-03 0
3.838154e+00 2.841419e-03 0
3.837283e+00 2.888598e-03 0
3.836401e+00 2.932440e-03 0
3.835509e+00 2.973092e-03 0
3.834606e+00 3.010696e-03 0
3.833694e+00 3.045399e-03 0
3.832774e+00 3.077358e-03 0
3.831845e+00 3.106722e-03 0
3.830909e+00 3.133628e-03 0
3.829967e+00 3.158198e-03 0
3.829018e+00 3.180537e-03 0
3.828063e+00 3.200751e-03 0
3.827103e+00 3.218947e-03 0
3.826138e+00 3.235238e-03 0
3.825169e+00 3.249731e-03 0
3.824196e+00 3.262524e-03 0
3.823219e+00 3.273699e-03 0
3.822240e+00 3.283329e-03 0
3.821257e+00 3.291486e-03 0
3.820271e+00 3.298244e-03 0
3.819284e+00 3.303680e-03 0
3.818295e+00 3.307872e-03 0
3.817303e+00 3.310888e-03 0
3.816311e+00 3.312784e-03 0
3.815318e+00 3.313608e-03 0
3.814323e+00 3.313409e-03 0
3.813328e+00 3.312234e-03 0
3.812333e+00 3.310137e-03 0
3.811338e+00 3.307166e-03 0
3.810342e+00 3.303366e-03 0
3.809347e+00 3.298773e-03 0
3.808353e+00 3.293418e-03 0
3.807359e+00 3.287330e-03 0
3.806365e+00 3.280542e-03 0
3.805373e+00 3.273084e-03 0
3.804382e+00 3.264988e-03 0
3.803392e+00 3.256280e-03 0
3.802403e+00 3.246980e-03 0
3.801416e+00 3.237109e-03 0
3.800431e+00 3.226682e-03 0
3.799447e+00 3.215717e-03 0
3.798466e+00 3.204232e-03 0
3.797486e+00 3.192241e-03 0
3.796509e+00 3.179758e-03 0
3.795534e+00 3.166796e-03 0
3.794561e+00 3.153363e-03 0
3.793591e+00 3.139467e-03 0
3.792624e+00 3.125114e-03 0
3.791660e+00 3.110311e-03 0
3.790698e+00 3.095062e-03 0
3.789739e+00 3.079373e-03 0
3.788784e+00 3.063248e-03 0
3.787832e+00 3.046688e-03 0
3.786883e+00 3.029695e-03 0
3.785938e+00 3.012269e-03 0
3.784996e+00 2.994410e-03 0
3.784058e+00 2.976117e-03 0
3.783123e+00 2.957389e-03 0
3.782193e+00 2.938224e-03 0
3.781267e+00 2.918616e-03 0
3.780344e+00 2.898561e-03 0
3.779426e+00 2.878049e-03 0
3.778513e+00 2.857068e-03 0
3.777604e+00 2.835599e-03 0
3.776699e+00 2.813616e-03 0
3.775799e+00 2.791080e-03 0
3.774904e+00 2.767935e-03 0
3.774014e+00 2.744098e-03 0
3.773130e+00 2.719444e-03 0
3.772250e+00 2.693791e-03 0
3.771376e+00 2.666868e-03 0
3.770508e+00 2.638266e-03 0
3.769645e+00 2.607368e-03 0
3.768788e+00 2.573228e-03 0
3.767938e+00 2.534416e-03 0
3.767093e+00 2.488817e-03 0
3.766252e+00 2.433710e-03 0
3.765411e+00 2.366231e-03 0
3.764561e+00 2.304200e-03 0
3.764561e+00 2.279350e-03 0
4.402058e+00 -9.258141e-05 0
4.402058e+00 -8.462747e-05 0
4.402085e+00 -5.416506e-05 0
4.402107e+00 5.821502e-06 0
4.402120e+00 9.701830e-05 0
4.402121e+00 2.220679e-04 0
4.402104e+00 3.841308e-04 0
4.402066e+00 5.871683e-04 0
4.402000e+00 8.358893e-04 0
4.401900e+00 1.135737e-03 0
4.401759e+00 1.492895e-03 0
4.401569e+00 1.914296e-03 0
4.401320e+00 2.407669e-03 0
4.401001e+00 2.981582e-03 0
4.400602e+00 3.645530e-03 0
4.400108e+00 4.410134e-03 0
4.399507e+00 5.287395e-03 0
4.398783e+00 6.291082e-03 0
4.397918e+00 7.437286e-03 0
4.396895e+00 8.745077e-03 0
4.395694e+00 1.023738e-02 0
4.394292e+00 1.194211e-02 0
4.392664e+00 1.389365e-02 0
4.390782e+00 1.613475e-02 0
4.388608e+00 1.871903e-02 0
4.386096e+00 2.171418e-02 0
4.383178e+00 2.520565e-02 0
4.379745e+00 2.929926e-02 0
4.375600e+00 3.411547e-02 0
4.370366e+00 3.974673e-02 0
4.363283e+00 4.607738e-02 0
4.352883e+00 5.217940e-02 0
4.336884e+00 5.471485e-02 0
4.318247e+00 4.907483e-02 0
4.309248e+00 3.796038e-02 0
4.305833e+00 2.763145e-02 0
4.304827e+00 1.965744e-02 0
4.304731e+00 1.383598e-02 0
4.304933e+00 9.640031e-03 0
4.305202e+00 6.613216e-03 0
4.305459e+00 4.422816e-03 0
4.305681e+00 2.835632e-03 0
4.305860e+00 1.688655e-03 0
4.305995e+00 8.678397e-04 0
4.306082e+00 2.931332e-04 0
4.306123e+00 -9.534013e-05 0
4.306117e+00 -3.410928e-04 0
4.306065e+00 -4.736004e-04 0
4.305972e+00 -5.156296e-04 0
4.305842e+00 -4.855456e-04 0
4.305682e+00 -3.984985e-04 0
4.305493e+00 -2.668668e-04 0
4.305282e+00 -1.030107e-04 0
4.305051e+00 8.093524e-05 0
4.304801e+00 2.789260e-04 0
4.304529e+00 4.864094e-04 0
4.304232e+00 6.971113e-04 0
4.303913e+00 9.062907e-04 0
4.303569e+00 1.110354e-03 0
4.303201e+00 1.307171e-03 0
4.302806e+00 1.495640e-03 0
4.302386e+00 1.675410e-03 0
4.301941e+00 1.846535e-03 0
4.301471e+00 2.009243e-03 0
4.300977e+00 2.163813e-03 0
4.300461e+00 2.310517e-03 0
4.299924e+00 2.449596e-03 0
4.299366e+00 2.581274e-03 0
4.298789e+00 2.705780e-03 0
4.298193e+00 2.823361e-03 0
4.297580e+00 2.934289e-03 0
4.296950e+00 3.038846e-03 0