<?xml version="1.0"?>
<VTKFile type="StructuredGrid">
<StructuredGrid WholeExtent="0 158 0 30 0 0 ">
<Piece Extent="0 158 0 30 0 0 ">
<Points>
<DataArray type="Float64" format="ascii" NumberOfComponents="3">
0.000000e+00 0.000000e+00 0.000000e+00
3.164557e-02 0.000000e+00 0.000000e+00
6.329114e-02 0.000000e+00 0.000000e+00
9.493671e-02 0.000000e+00 0.000000e+00
1.265823e-01 0.000000e+00 0.000000e+00
1.582278e-01 0.000000e+00 0.000000e+00
1.898734e-01 0.000000e+00 0.000000e+00
2.215190e-01 0.000000e+00 0.000000e+00
2.531646e-01 0.000000e+00 0.000000e+00
2.848101e-01 0.000000e+00 0.000000e+00
3.164557e-01 0.000000e+00 0.000000e+00
3.481013e-01 0.000000e+00 0.000000e+00
3.797468e-01 0.000000e+00 0.000000e+00
4.113924e-01 0.000000e+00 0.000000e+00
4.430380e-01 0.000000e+00 0.000000e+00
4.746835e-01 0.000000e+00 0.000000e+00
5.063291e-01 0.000000e+00 0.000000e+00
5.379747e-01 0.000000e+00 0.000000e+00
5.696203e-01 0.000000e+00 0.000000e+00
6.012658e-01 0.000000e+00 0.000000e+00
6.329114e-01 0.000000e+00 0.000000e+00
6.645570e-01 0.000000e+00 0.000000e+00
6.962025e-01 0.000000e+00 0.000000e+00
7.278481e-01 0.000000e+00 0.000000e+00
7.594937e-01 0.000000e+00 0.000000e+00
7.911392e-01 0.000000e+00 0.000000e+00
8.227848e-01 0.000000e+00 0.000000e+00
8.544304e-01 0.000000e+00 0.000000e+00
8.860759e-01 0.000000e+00 0.000000e+00
9.177215e-01 0.000000e+00 0.000000e+00
9.493671e-01 0.000000e+00 0.000000e+00
9.810127e-01 0.000000e+00 0.000000e+00
1.012658e+00 0.000000e+00 0.000000e+00
1.044304e+00 0.000000e+00 0.000000e+00
1.075949e+00 0.000000e+00 0.000000e+00
1.107595e+00 0.000000e+00 0.000000e+00
1.139241e+00 0.000000e+00 0.000000e+00
1.170886e+00 0.000000e+00 0.000000e+00
1.202532e+00 0.000000e+00 0.000000e+00
1.234177e+00 0.000000e+00 0.000000e+00
1.265823e+00 0.000000e+00 0.000000e+00
1.297468e+00 0.000000e+00 0.000000e+00
1.329114e+00 0.000000e+00 0.000000e+00
1.360759e+00 0.000000e+00 0.000000e+00
1.392405e+00 0.000000e+00 0.000000e+00
1.424051e+00 0.000000e+00 0.000000e+00
1.455696e+00 0.000000e+00 0.000000e+00
1.487342e+00 0.000000e+00 0.000000e+00
1.518987e+00 0.000000e+00 0.000000e+00
1.550633e+00 0.000000e+00 0.000000e+00
1.582278e+00 0.000000e+00 0.000000e+00
1.613924e+00 0.000000e+00 0.000000e+00
1.645570e+00 0.000000e+00 0.000000e+00
1.677215e+00 0.000000e+00 0.000000e+00
1.708861e+00 0.000000e+00 0.000000e+00
1.740506e+00 0.000000e+00 0.000000e+00
1.772152e+00 0.000000e+00 0.000000e+00
1.803797e+00 0.000000e+00 0.000000e+00
1.835443e+00 0.000000e+00 0.000000e+00
1.867089e+00 0.000000e+00 0.000000e+00
1.898734e+00 0.000000e+00 0.000000e+00
1.930380e+00 0.000000e+00 0.000000e+00
1.962025e+00 0.000000e+00 0.000000e+00
1.993671e+00 0.000000e+00 0.000000e+00
2.025316e+00 0.000000e+00 0.000000e+00
2.056962e+00 0.000000e+00 0.000000e+00
2.088608e+00 0.000000e+00 0.000000e+00
2.120253e+00 0.000000e+00 0.000000e+00
2.151899e+00 0.000000e+00 0.000000e+00
2.183544e+00 0.000000e+00 0.000000e+00
2.215190e+00 0.000000e+00 0.000000e+00
2.246835e+00 0.000000e+00 0.000000e+00
2.278481e+00 0.000000e+00 0.000000e+00
2.310127e+00 0.000000e+00 0.000000e+00
2.341772e+00 0.000000e+00 0.000000e+00
2.373418e+00 0.000000e+00 0.000000e+00
2.405063e+00 0.000000e+00 0.000000e+00
2.436709e+00 0.000000e+00 0.000000e+00
2.468354e+00 0.000000e+00 0.000000e+00
2.500000e+00 0.000000e+00 0.000000e+00
2.531646e+00 0.000000e+00 0.000000e+00
2.563291e+00 0.000000e+00 0.000000e+00
2.594937e+00 0.000000e+00 0.000000e+00
2.626582e+00 0.000000e+00 0.000000e+00
2.658228e+00 0.000000e+00 0.000000e+00
2.689873e+00 0.000000e+00 0.000000e+00
2.721519e+00 0.000000e+00 0.000000e+00
2.753165e+00 0.000000e+00 0.000000e+00
2.784810e+00 0.000000e+00 0.000000e+00
2.816456e+00 0.000000e+00 0.000000e+00
2.848101e+00 0.000000e+00 0.000000e+00
2.879747e+00 0.000000e+00 0.000000e+00
2.911392e+00 0.000000e+00 0.000000e+00
2.943038e+00 0.000000e+00 0.000000e+00
2.974684e+00 0.000000e+00 0.000000e+00
3.006329e+00 0.000000e+00 0.000000e+00
3.037975e+00 0.000000e+00 0.000000e+00
3.069620e+00 0.000000e+00 0.000000e+00
3.101266e+00 0.000000e+00 0.000000e+00
3.132911e+00 0.000000e+00 0.000000e+00
3.164557e+00 0.000000e+00 0.000000e+00
3.196203e+00 0.000000e+00 0.000000e+00
3.227848e+00 0.000000e+00 0.000000e+00
3.259494e+00 0.000000e+00 0.000000e+00
3.291139e+00 0.000000e+00 0.000000e+00
3.322785e+00 0.000000e+00 0.000000e+00
3.354430e+00 0.000000e+00 0.000000e+00
3.386076e+00 0.000000e+00 0.000000e+00
3.417722e+00 0.000000e+00 0.000000e+00
3.449367e+00 0.000000e+00 0.000000e+00
3.481013e+00 0.000000e+00 0.000000e+00
3.512658e+00 0.000000e+00 0.000000e+00
3.544304e+00 0.000000e+00 0.000000e+00
3.575949e+00 0.000000e+00 0.000000e+00
3.607595e+00 0.000000e+00 0.000000e+00
3.639241e+00 0.000000e+00 0.000000e+00
3.670886e+00 0.000000e+00 0.000000e+00
3.702532e+00 0.000000e+00 0.000000e+00
3.734177e+00 0.000000e+00 0.000000e+00
3.765823e+00 0.000000e+00 0.000000e+00
3.797468e+00 0.000000e+00 0.000000e+00
3.829114e+00 0.000000e+00 0.000000e+00
3.860759e+00 0.000000e+00 0.000000e+00
3.892405e+00 0.000000e+00 0.000000e+00
3.924051e+00 0.000000e+00 0.000000e+00
3.955696e+00 0.000000e+00 0.000000e+00
3.987342e+00 0.000000e+00 0.000000e+00
4.018987e+00 0.000000e+00 0.000000e+00
4.050633e+00 0.000000e+00 0.000000e+00
4.082278e+00 0.000000e+00 0.000000e+00
4.113924e+00 0.000000e+00 0.000000e+00
4.145570e+00 0.000000e+00 0.000000e+00
4.177215e+00 0.000000e+00 0.000000e+00
4.208861e+00 0.000000e+00 0.000000e+00
4.240506e+00 0.000000e+00 0.000000e+00
4.272152e+00 0.000000e+00 0.000000e+00
4.303797e+00 0.000000e+00 0.000000e+00
4.335443e+00 0.000000e+00 0.000000e+00
4.367089e+00 0.000000e+00 0.000000e+00
4.398734e+00 0.000000e+00 0.000000e+00
4.430380e+00 0.000000e+00 0.000000e+00
4.462025e+00 0.000000e+00 0.000000e+00
4.493671e+00 0.000000e+00 0.000000e+00
4.525316e+00 0.000000e+00 0.000000e+00
4.556962e+00 0.000000e+00 0.000000e+00
4.588608e+00 0.000000e+00 0.000000e+00
4.620253e+00 0.000000e+00 0.000000e+00
4.651899e+00 0.000000e+00 0.000000e+00
4.683544e+00 0.000000e+00 0.000000e+00
4.715190e+00 0.000000e+00 0.000000e+00
4.746835e+00 0.000000e+00 0.000000e+00
4.778481e+00 0.000000e+00 0.000000e+00
4.810127e+00 0.000000e+00 0.000000e+00
4.841772e+00 0.000000e+00 0.000000e+00
4.873418e+00 0.000000e+00 0.000000e+00
4.905063e+00 0.000000e+00 0.000000e+00
4.936709e+00 0.000000e+00 0.000000e+00
4.968354e+00 0.000000e+00 0.000000e+00
5.000000e+00 0.000000e+00 0.000000e+00
0.000000e+00 3.333333e-02 0.000000e+00
3.164557e-02 3.333333e-02 0.000000e+00
6.329114e-02 3.333333e-02 0.000000e+00
9.493671e-02 3.333333e-02 0.000000e+00
1.265823e-01 3.333333e-02 0.000000e+00
1.582278e-01 3.333333e-02 0.000000e+00
1.898734e-01 3.333333e-02 0.000000e+00
2.215190e-01 3.333333e-02 0.000000e+00
2.531646e-01 3.333333e-02 0.000000e+00
2.848101e-01 3.333333e-02 0.000000e+00
3.164557e-01 3.333333e-02 0.000000e+00
3.481013e-01 3.333333e-02 0.000000e+00
3.797468e-01 3.333333e-02 0.000000e+00
4.113924e-01 3.333333e-02 0.000000e+00
4.430380e-01 3.333333e-02 0.000000e+00
4.746835e-01 3.333333e-02 0.000000e+00
5.063291e-01 3.333333e-02 0.000000e+00
5.379747e-01 3.333333e-02 0.000000e+00
5.696203e-01 3.333333e-02 0.000000e+00
6.012658e-01 3.333333e-02 0.000000e+00
6.329114e-01 3.333333e-02 0.000000e+00
6.645570e-01 3.333333e-02 0.000000e+00
6.962025e-01 3.333333e-02 0.000000e+00
7.278481e-01 3.333333e-02 0.000000e+00
7.594937e-01 3.333333e-02 0.000000e+00
7.911392e-01 3.333333e-02 0.000000e+00
8.227848e-01 3.333333e-02 0.000000e+00
8.544304e-01 3.333333e-02 0.000000e+00
8.860759e-01 3.333333e-02 0.000000e+00
9.177215e-01 3.333333e-02 0.000000e+00
9.493671e-01 3.333333e-02 0.000000e+00
9.810127e-01 3.333333e-02 0.000000e+00
1.012658e+00 3.333333e-02 0.000000e+00
1.044304e+00 3.333333e-02 0.000000e+00
1.075949e+00 3.333333e-02 0.000000e+00
1.107595e+00 3.333333e-02 0.000000e+00
1.139241e+00 3.333333e-02 0.000000e+00
1.170886e+00 3.333333e-02 0.000000e+00
1.202532e+00 3.333333e-02 0.000000e+00
1.234177e+00 3.333333e-02 0.000000e+00
1.265823e+00 3.333333e-02 0.000000e+00
1.297468e+00 3.333333e-02 0.000000e+00
1.329114e+00 3.333333e-02 0.000000e+00
1.360759e+00 3.333333e-02 0.000000e+00
1.392405e+00 3.333333e-02 0.000000e+00
1.424051e+00 3.333333e-02 0.000000e+00
1.455696e+00 3.333333e-02 0.000000e+00
1.487342e+00 3.333333e-02 0.000000e+00
1.518987e+00 3.333333e-02 0.000000e+00
1.550633e+00 3.333333e-02 0.000000e+00
1.582278e+00 3.333333e-02 0.000000e+00
1.613924e+00 3.333333e-02 0.000000e+00
1.645570e+00 3.333333e-02 0.000000e+00
1.677215e+00 3.333333e-02 0.000000e+00
1.708861e+00 3.333333e-02 0.000000e+00
1.740506e+00 3.333333e-02 0.000000e+00
1.772152e+00 3.333333e-02 0.000000e+00
1.803797e+00 3.333333e-02 0.000000e+00
1.835443e+00 3.333333e-02 0.000000e+00
1.867089e+00 3.333333e-02 0.000000e+00
1.898734e+00 3.333333e-02 0.000000e+00
1.930380e+00 3.333333e-02 0.000000e+00
1.962025e+00 3.333333e-02 0.000000e+00
1.993671e+00 3.333333e-02 0.000000e+00
2.025316e+00 3.333333e-02 0.000000e+00
2.056962e+00 3.333333e-02 0.000000e+00
2.088608e+00 3.333333e-02 0.000000e+00
2.120253e+00 3.333333e-02 0.000000e+00
2.151899e+00 3.333333e-02 0.000000e+00
2.183544e+00 3.333333e-02 0.000000e+00
2.215190e+00 3.333333e-02 0.000000e+00
2.246835e+00 3.333333e-02 0.000000e+00
2.278481e+00 3.333333e-02 0.000000e+00
2.310127e+00 3.333333e-02 0.000000e+00
2.341772e+00 3.333333e-02 0.000000e+00
2.373418e+00 3.333333e-02 0.000000e+00
2.405063e+00 3.333333e-02 0.000000e+00
2.436709e+00 3.333333e-02 0.000000e+00
2.468354e+00 3.333333e-02 0.000000e+00
2.500000e+00 3.333333e-02 0.000000e+00
2.531646e+00 3.333333e-02 0.000000e+00
2.563291e+00 3.333333e-02 0.000000e+00
2.594937e+00 3.333333e-02 0.000000e+00
2.626582e+00 3.333333e-02 0.000000e+00
2.658228e+00 3.333333e-02 0.000000e+00
2.689873e+00 3.333333e-02 0.000000e+00
2.721519e+00 3.333333e-02 0.000000e+00
2.753165e+00 3.333333e-02 0.000000e+00
2.784810e+00 3.333333e-02 0.000000e+00
2.816456e+00 3.333333e-02 0.000000e+00
2.848101e+00 3.333333e-02 0.000000e+00
2.879747e+00 3.333333e-02 0.000000e+00
[...]
<PointData>
<DataArray Name="Velocity" type="Float64" format="ascii" NumberOfComponents="3">
0.000000e+00 0.000000e+00 0
0.000000e+00 0.000000e+00 0
0.000000e+00 0.000000e+00 0
0.000000e+00 0.000000e+00 0
0.000000e+00 0.000000e+00 0
0.000000e+00 0.000000e+00 0
0.000000e+00 0.000000e+00 0
0.000000e+00 0.000000e+00 0
0.000000e+00 0.000000e+00 0
0.000000e+00 0.000000e+00 0
0.000000e+00 0.000000e+00 0
0.000000e+00 0.000000e+00 0
0.000000e+00 0.000000e+00 0
0.000000e+00 0.000000e+00 0
0.000000e+00 0.000000e+00 0
0.000000e+00 0.000000e+00 0
0.000000e+00 0.000000e+00 0
0.000000e+00 0.000000e+00 0
0.000000e+00 0.000000e+00 0
2.723413e-17 0.000000e+00 0
0.000000e+00 0.000000e+00 0
0.000000e+00 0.000000e+00 0
0.000000e+00 0.000000e+00 0
-7.826095e-18 0.000000e+00 0
0.000000e+00 0.000000e+00 0
0.000000e+00 0.000000e+00 0
0.000000e+00 0.000000e+00 0
3.892253e-17 0.000000e+00 0
0.000000e+00 0.000000e+00 0
0.000000e+00 0.000000e+00 0
0.000000e+00 0.000000e+00 0
-9.755452e-18 0.000000e+00 0
0.000000e+00 0.000000e+00 0
0.000000e+00 0.000000e+00 0
0.000000e+00 0.000000e+00 0
0.000000e+00 0.000000e+00 0
0.000000e+00 0.000000e+00 0
0.000000e+00 0.000000e+00 0
2.361771e-17 0.000000e+00 0
0.000000e+00 0.000000e+00 0
0.000000e+00 0.000000e+00 0
0.000000e+00 0.000000e+00 0
0.000000e+00 0.000000e+00 0
0.000000e+00 0.000000e+00 0
0.000000e+00 0.000000e+00 0
0.000000e+00 0.000000e+00 0
2.693844e-17 0.000000e+00 0
0.000000e+00 0.000000e+00 0
0.000000e+00 0.000000e+00 0
0.000000e+00 0.000000e+00 0
0.000000e+00 0.000000e+00 0
0.000000e+00 0.000000e+00 0
0.000000e+00 0.000000e+00 0
0.000000e+00 0.000000e+00 0
1.117012e-17 0.000000e+00 0
0.000000e+00 0.000000e+00 0
0.000000e+00 0.000000e+00 0
0.000000e+00 0.000000e+00 0
0.000000e+00 0.000000e+00 0
0.000000e+00 0.000000e+00 0
0.000000e+00 0.000000e+00 0
0.000000e+00 0.000000e+00 0
1.395731e-17 0.000000e+00 0
0.000000e+00 0.000000e+00 0
0.000000e+00 0.000000e+00 0
0.000000e+00 0.000000e+00 0
0.000000e+00 0.000000e+00 0
0.000000e+00 0.000000e+00 0
0.000000e+00 0.000000e+00 0
0.000000e+00 0.000000e+00 0
0.000000e+00 0.000000e+00 0
0.000000e+00 0.000000e+00 0
0.000000e+00 0.000000e+00 0
0.000000e+00 0.000000e+00 0
0.000000e+00 0.000000e+00 0
0.000000e+00 0.000000e+00 0
0.000000e+00 0.000000e+00 0
0.000000e+00 0.000000e+00 0
0.000000e+00 0.000000e+00 0
0.000000e+00 0.000000e+00 0
0.000000e+00 0.000000e+00 0
0.000000e+00 0.000000e+00 0
0.000000e+00 0.000000e+00 0
0.000000e+00 0.000000e+00 0
0.000000e+00 0.000000e+00 0
0.000000e+00 0.000000e+00 0
0.000000e+00 0.000000e+00 0
0.000000e+00 0.000000e+00 0
0.000000e+00 0.000000e+00 0
0.000000e+00 0.000000e+00 0
0.000000e+00 0.000000e+00 0
0.000000e+00 0.000000e+00 0
0.000000e+00 0.000000e+00 0
0.000000e+00 0.000000e+00 0
0.000000e+00 0.000000e+00 0
0.000000e+00 0.000000e+00 0
0.000000e+00 0.000000e+00 0
0.000000e+00 0.000000e+00 0
0.000000e+00 0.000000e+00 0
0.000000e+00 0.000000e+00 0
0.000000e+00 0.000000e+00 0
0.000000e+00 0.000000e+00 0
0.000000e+00 0.000000e+00 0
0.000000e+00 0.000000e+00 0
0.000000e+00 0.000000e+00 0
0.000000e+00 0.000000e+00 0
0.000000e+00 0.000000e+00 0
0.000000e+00 0.000000e+00 0
0.000000e+00 0.000000e+00 0
0.000000e+00 0.000000e+00 0
0.000000e+00 0.000000e+00 0
0.000000e+00 0.000000e+00 0
0.000000e+00 0.000000e+00 0
0.000000e+00 0.000000e+00 0
0.000000e+00 0.000000e+00 0
0.000000e+00 0.000000e+00 0
0.000000e+00 0.000000e+00 0
0.000000e+00 0.000000e+00 0
0.000000e+00 0.000000e+00 0
0.000000e+00 0.000000e+00 0
0.000000e+00 0.000000e+00 0
0.000000e+00 0.000000e+00 0
0.000000e+00 0.000000e+00 0
0.000000e+00 0.000000e+00 0
0.000000e+00 0.000000e+00 0
0.000000e+00 0.000000e+00 0
0.000000e+00 0.000000e+00 0
0.000000e+00 0.000000e+00 0
0.000000e+00 0.000000e+00 0
0.000000e+00 0.000000e+00 0
0.000000e+00 0.000000e+00 0
0.000000e+00 0.000000e+00 0
0.000000e+00 0.000000e+00 0
0.000000e+00 0.000000e+00 0
0.000000e+00 0.000000e+00 0
0.000000e+00 0.000000e+00 0
0.000000e+00 0.000000e+00 0
0.000000e+00 0.000000e+00 0
0.000000e+00 0.000000e+00 0
0.000000e+00 0.000000e+00 0
0.000000e+00 0.000000e+00 0
0.000000e+00 0.000000e+00 0
0.000000e+00 0.000000e+00 0
0.000000e+00 0.000000e+00 0
0.000000e+00 0.000000e+00 0
0.000000e+00 0.000000e+00 0
0.000000e+00 0.000000e+00 0
0.000000e+00 0.000000e+00 0
0.000000e+00 0.000000e+00 0
0.000000e+00 0.000000e+00 0
0.000000e+00 0.000000e+00 0
0.000000e+00 0.000000e+00 0
0.000000e+00 0.000000e+00 0
0.000000e+00 0.000000e+00 0
0.000000e+00 0.000000e+00 0
0.000000e+00 0.000000e+00 0
0.000000e+00 0.000000e+00 0
0.000000e+00 0.000000e+00 0
0.000000e+00 0.000000e+00 0
1.720396e+00 -4.772552e-05 0
1.720396e+00 -5.105330e-05 0
1.720438e+00 -4.606468e-05 0
1.720466e+00 -2.220670e-05 0
1.720467e+00 1.292929e-05 0
1.720432e+00 5.797813e-05 0
1.720349e+00 1.157205e-04 0
1.720204e+00 1.880083e-04 0
1.719983e+00 2.767056e-04 0
1.719669e+00 3.838924e-04 0
1.719243e+00 5.119344e-04 0
1.718684e+00 6.635487e-04 0
1.717969e+00 8.417593e-04 0
1.717071e+00 1.049907e-03 0
1.715960e+00 1.291764e-03 0
1.714601e+00 1.571606e-03 0
1.712957e+00 1.894330e-03 0
1.710983e+00 2.265690e-03 0
1.708630e+00 2.692487e-03 0
1.705843e+00 3.182761e-03 0
1.702556e+00 3.746117e-03 0
1.698695e+00 4.394064e-03 0
1.694174e+00 5.140281e-03 0
1.688890e+00 6.000785e-03 0
1.682728e+00 6.993520e-03 0
1.675549e+00 8.136768e-03 0
1.667199e+00 9.445009e-03 0
1.657511e+00 1.091967e-02 0
1.646317e+00 1.253111e-02 0
1.633494e+00 1.418732e-02 0
1.619040e+00 1.569028e-02 0
1.603210e+00 1.670302e-02 0
1.586699e+00 1.679951e-02 0
1.570720e+00 1.570455e-02 0
1.556614e+00 1.360435e-02 0
1.545068e+00 1.103290e-02 0
1.536130e+00 8.480466e-03 0
1.529493e+00 6.231247e-03 0
1.524734e+00 4.386163e-03 0
1.521441e+00 2.936608e-03 0
1.519265e+00 1.823621e-03 0
1.517930e+00 9.681164e-04 0
1.517231e+00 2.334558e-04 0
1.517011e+00 -4.284218e-04 0
1.517171e+00 -9.559887e-04 0
1.517613e+00 -1.339317e-03 0
1.518250e+00 -1.593057e-03 0
1.519006e+00 -1.736071e-03 0
1.519820e+00 -1.787538e-03 0
1.520640e+00 -1.765194e-03 0
1.521428e+00 -1.684663e-03 0
1.522151e+00 -1.559343e-03 0
1.522786e+00 -1.400548e-03 0
1.523314e+00 -1.217725e-03 0
1.523724e+00 -1.018597e-03 0
1.524007e+00 -8.088959e-04 0
1.524158e+00 -5.926288e-04 0
1.524186e+00 -3.746857e-04 0
1.524103e+00 -1.729567e-04 0
1.523923e+00 -1.782211e-05 0
1.523653e+00 9.200875e-05 0
1.523300e+00 1.813731e-04 0
1.522873e+00 2.606473e-04 0
1.522376e+00 3.332903e-04 0
1.521815e+00 4.007272e-04 0
1.521193e+00 4.637045e-04 0
1.520515e+00 5.227066e-04 0
1.519783e+00 5.780855e-04 0
1.519001e+00 6.300990e-04 0
1.518172e+00 6.789309e-04 0
1.517298e+00 7.247205e-04 0
1.516383e+00 7.675968e-04 0
1.515428e+00 8.077029e-04 0
1.514437e+00 8.451972e-04 0
1.513411e+00 8.802370e-04 0
1.512353e+00 9.129597e-04 0
1.511265e+00 9.434767e-04 0
1.510149e+00 9.718824e-04 0
1.509007e+00 9.982695e-04 0
1.507840e+00 1.022738e-03 0
1.506650e+00 1.045394e-03 0
1.505439e+00 1.066340e-03 0
1.504208e+00 1.085667e-03 0
1.502960e+00 1.103457e-03 0
1.501694e+00 1.119784e-03 0
1.500413e+00 1.134724e-03 0
1.499118e+00 1.148349e-03 0
1.497809e+00 1.160733e-03 0
1.496488e+00 1.171944e-03 0
1.495157e+00 1.182046e-03 0
1.493815e+00 1.191096e-03 0
1.492465e+00 1.199146e-03 0
1.491106e+00 1.206246e-03 0
1.489740e+00 1.212443e-03 0
1.488368e+00 1.217784e-03 0
1.486989e+00 1.222319e-03 0
1.485606e+00 1.226095e-03 0
1.484218e+00 1.229158e-03 0
1.482827e+00 1.231544e-03 0
1.481433e+00 1.233284e-03 0
1.480036e+00 1.234402e-03 0
1.478638e+00 1.234923e-03 0
1.477238e+00 1.234880e-03 0
1.475837e+00 1.234309e-03 0
1.474435e+00 1.233249e-03 0
1.473034e+00 1.231729e-03 0
1.471633e+00 1.229770e-03 0
1.470233e+00 1.227386e-03 0
1.468835e+00 1.224588e-03 0
1.467438e+00 1.221396e-03 0
1.466043e+00 1.217832e-03 0
1.464650e+00 1.213918e-03 0
1.463260e+00 1.209674e-03 0
1.461873e+00 1.205114e-03 0
1.460489e+00 1.200247e-03 0
1.459109e+00 1.195082e-03 0
1.457732e+00 1.189631e-03 0
1.456360e+00 1.183904e-03 0
1.454992e+00 1.177913e-03 0
1.453629e+00 1.171668e-03 0
1.452270e+00 1.165174e-03 0
1.450917e+00 1.158437e-03 0
1.449568e+00 1.151463e-03 0
1.448226e+00 1.144257e-03 0
1.446889e+00 1.136826e-03 0
1.445558e+00 1.129175e-03 0
1.444234e+00 1.121306e-03 0
1.442915e+00 1.113221e-03 0
1.441604e+00 1.104921e-03 0
1.440299e+00 1.096405e-03 0
1.439001e+00 1.087677e-03 0
1.437711e+00 1.078737e-03 0
1.436428e+00 1.069586e-03 0
1.435152e+00 1.060226e-03 0
1.433885e+00 1.050653e-03 0
1.432626e+00 1.040867e-03 0
1.431375e+00 1.030862e-03 0
1.430132e+00 1.020638e-03 0
1.428898e+00 1.010189e-03 0
1.427674e+00 9.995125e-04 0
1.426458e+00 9.886007e-04 0
1.425252e+00 9.774443e-04 0
1.424056e+00 9.660304e-04 0
1.422869e+00 9.543423e-04 0
1.421693e+00 9.423565e-04 0
1.420527e+00 9.300394e-04 0
1.419373e+00 9.173437e-04 0
1.418229e+00 9.041994e-04 0
1.417098e+00 8.905024e-04 0
1.415978e+00 8.760980e-04 0
1.414872e+00 8.607467e-04 0
1.413780e+00 8.440716e-04 0
1.412704e+00 8.254452e-04 0
1.411645e+00 8.037423e-04 0
1.410608e+00 7.765239e-04 0
1.409597e+00 7.392476e-04 0
1.408622e+00 6.483793e-04 0
1.407697e+00 7.451599e-04 0
1.407697e+00 9.109485e-04 0
2.675635e+00 -9.434894e-05 0
2.675635e+00 -9.162473e-05 0
2.675671e+00 -7.326552e-05 0
2.675694e+00 -3.053606e-05 0
2.675697e+00 3.512636e-05 0
2.675670e+00 1.247055e-04 0
2.675599e+00 2.405665e-04 0
2.675475e+00 3.857871e-04 0
2.675283e+00 5.639756e-04 0
2.675010e+00 7.792884e-04 0
2.674637e+00 1.036508e-03 0
2.674148e+00 1.341024e-03 0
2.673520e+00 1.698829e-03 0
2.672730e+00 2.116660e-03 0
2.671751e+00 2.602104e-03 0
2.670553e+00 3.163760e-03 0
2.669101e+00 3.811546e-03 0
2.667358e+00 4.557026e-03 0
2.665279e+00 5.413761e-03 0
2.662816e+00 6.397875e-03 0
2.659911e+00 7.528687e-03 0
2.656498e+00 8.829388e-03 0
2.652503e+00 1.032774e-02 0
2.647834e+00 1.205651e-02 0
2.642386e+00 1.405301e-02 0
2.636035e+00 1.635643e-02 0
2.628629e+00 1.900050e-02 0
2.619995e+00 2.199645e-02 0
2.609930e+00 2.529732e-02 0
2.598224e+00 2.873153e-02 0
2.584715e+00 3.189904e-02 0
2.569450e+00 3.406523e-02 0
2.553030e+00 3.422235e-02 0
2.537085e+00 3.168984e-02 0
2.523736e+00 2.702069e-02 0
2.513531e+00 2.157735e-02 0
2.506094e+00 1.640654e-02 0
2.500811e+00 1.200369e-02 0
2.497123e+00 8.480610e-03 0
2.494595e+00 5.760194e-03 0
2.492905e+00 3.698556e-03 0
2.491821e+00 2.142517e-03 0
2.491164e+00 9.684952e-04 0
2.490737e+00 6.351052e-05 0
2.490438e+00 -6.347889e-04 0
2.490219e+00 -1.136316e-03 0
2.490049e+00 -1.466715e-03 0
2.489903e+00 -1.653181e-03 0
2.489763e+00 -1.721349e-03 0
2.489618e+00 -1.694122e-03 0
2.489454e+00 -1.591387e-03 0
2.489265e+00 -1.430138e-03 0
2.489043e+00 -1.224797e-03 0
2.488783e+00 -9.876290e-04 0
2.488482e+00 -7.291581e-04 0
2.488139e+00 -4.578716e-04 0
2.487760e+00 -1.884647e-04 0
2.487352e+00 5.782901e-05 0
2.486916e+00 2.761272e-04 0
2.486445e+00 4.747758e-04 0
2.485916e+00 6.562485e-04 0
2.485323e+00 8.214411e-04 0
2.484668e+00 9.733291e-04 0
2.483954e+00 1.114354e-03 0
2.483184e+00 1.246099e-03 0
2.482360e+00 1.369616e-03 0
2.481487e+00 1.485656e-03 0
2.480566e+00 1.594785e-03 0
2.479601e+00 1.697438e-03 0
2.478593e+00 1.793962e-03 0
2.477546e+00 1.884650e-03 0
2.476462e+00 1.969784e-03 0
2.475342e+00 2.049646e-03 0
2.474189e+00 2.124519e-03 0
2.473005e+00 2.194669e-03 0
2.471792e+00 2.260338e-03 0
2.470551e+00 2.321739e-03 0
2.469285e+00 2.379073e-03 0
2.467994e+00 2.432536e-03 0
2.466680e+00 2.482326e-03 0
2.465346e+00 2.528637e-03 0
2.463991e+00 2.571651e-03 0
2.462618e+00 2.611538e-03 0
2.461227e+00 2.648456e-03 0
2.459821e+00 2.682556e-03 0
2.458399e+00 2.713984e-03 0
2.456963e+00 2.742881e-03 0
2.455514e+00 2.769382e-03 0
2.454054e+00 2.793612e-03 0
2.452582e+00 2.815689e-03 0
2.451100e+00 2.835726e-03 0
2.449609e+00 2.853825e-03 0
2.448108e+00 2.870085e-03 0
2.446600e+00 2.884601e-03 0
2.445085e+00 2.897463e-03 0
2.443563e+00 2.908761e-03 0
2.442035e+00 2.918582e-03 0
2.440502e+00 2.927005e-03 0
2.438964e+00 2.934100e-03 0
2.437422e+00 2.939925e-03 0
2.435876e+00 2.944539e-03 0
2.434327e+00 2.948000e-03 0
2.432775e+00 2.950370e-03 0
2.431220e+00 2.951717e-03 0
2.429664e+00 2.952097e-03 0
2.428106e+00 2.951562e-03 0
2.426547e+00 2.950148e-03 0
2.424987e+00 2.947889e-03 0
2.423427e+00 2.944821e-03 0
2.421866e+00 2.940982e-03 0
2.420306e+00 2.936413e-03 0
2.418746e+00 2.931152e-03 0
2.417187e+00 2.925230e-03 0
2.415629e+00 2.918669e-03 0
2.414072e+00 2.911493e-03 0
2.412517e+00 2.903720e-03 0
2.410964e+00 2.895373e-03 0
2.409413e+00 2.886474e-03 0
2.407864e+00 2.877041e-03 0
2.406317e+00 2.867091e-03 0
2.404774e+00 2.856634e-03 0
2.403233e+00 2.845682e-03 0
2.401695e+00 2.834245e-03 0
2.400161e+00 2.822335e-03 0
2.398631e+00 2.809961e-03 0
2.397104e+00 2.797130e-03 0
2.395581e+00 2.783847e-03 0
2.394063e+00 2.770116e-03 0
2.392549e+00 2.755937e-03 0
2.391040e+00 2.741313e-03 0
2.389535e+00 2.726246e-03 0
2.388035e+00 2.710738e-03 0
2.386541e+00 2.694790e-03 0
2.385052e+00 2.678398e-03 0
2.383568e+00 2.661559e-03 0
2.382091e+00 2.644269e-03 0
2.380619e+00 2.626521e-03 0
2.379154e+00 2.608310e-03 0
2.377695e+00 2.589627e-03 0
2.376243e+00 2.570462e-03 0
2.374798e+00 2.550801e-03 0
2.373360e+00 2.530623e-03 0
2.371929e+00 2.509905e-03 0
2.370506e+00 2.488611e-03 0
2.369091e+00 2.466695e-03 0
2.367683e+00 2.444090e-03 0
2.366285e+00 2.420700e-03 0
2.364895e+00 2.396386e-03 0
2.363514e+00 2.370943e-03 0
2.362144e+00 2.344066e-03 0
2.360783e+00 2.315292e-03 0
2.359434e+00 2.283897e-03 0
2.358097e+00 2.248718e-03 0
2.356773e+00 2.207791e-03 0
2.355465e+00 2.157683e-03 0
2.354174e+00 2.092079e-03 0
2.352900e+00 2.001260e-03 0
2.351607e+00 1.985146e-03 0
2.351607e+00 2.022142e-03 0
3.178180e+00 -1.430537e-04 0
3.178180e+00 -1.365370e-04 0
3.178223e+00 -1.086188e-04 0
3.178257e+00 -5.056371e-05 0
3.178276e+00 3.878463e-05 0
3.178273e+00 1.615464e-04 0
3.178241e+00 3.208987e-04 0
3.178171e+00 5.209575e-04 0
3.178053e+00 7.666871e-04 0
3.177877e+00 1.063915e-03 0
3.177631e+00 1.419295e-03 0
3.177300e+00 1.840272e-03 0
3.176870e+00 2.335184e-03 0
3.176321e+00 2.913370e-03 0
3.175636e+00 3.585295e-03 0
3.174790e+00 4.362836e-03 0
3.173760e+00 5.259620e-03 0
3.172518e+00 6.291411e-03 0
3.171032e+00 7.476729e-03 0
3.169267e+00 8.837604e-03 0
3.167184e+00 1.040049e-02 0
3.164736e+00 1.219737e-02 0
3.161871e+00 1.426712e-02 0
3.158526e+00 1.665674e-02 0
3.154624e+00 1.942215e-02 0
3.150069e+00 2.262741e-02 0
3.144737e+00 2.634010e-02 0
3.138454e+00 3.061644e-02 0
3.130971e+00 3.546305e-02 0
3.121915e+00 4.074640e-02 0
3.110751e+00 4.599871e-02 0
3.096863e+00 5.007870e-02 0
3.080165e+00 5.089149e-02 0
3.063207e+00 4.656146e-02 0
3.051023e+00 3.841492e-02 0
3.043354e+00 2.961566e-02 0
3.038716e+00 2.187793e-02 0
3.035909e+00 1.567996e-02 0
3.034191e+00 1.093413e-02 0
3.033134e+00 7.379695e-03 0
3.032491e+00 4.745611e-03 0
3.032114e+00 2.802658e-03 0
3.031896e+00 1.374827e-03 0
3.031769e+00 3.356878e-04 0
3.031660e+00 -4.105190e-04 0
3.031540e+00 -9.288598e-04 0
3.031396e+00 -1.259087e-03 0
3.031226e+00 -1.435498e-03 0
3.031026e+00 -1.487386e-03 0
3.030798e+00 -1.439636e-03 0
3.030542e+00 -1.313302e-03 0
3.030260e+00 -1.126140e-03 0
3.029951e+00 -8.931095e-04 0
3.029618e+00 -6.270661e-04 0
3.029259e+00 -3.397666e-04 0
3.028881e+00 -4.837267e-05 0
3.028483e+00 2.360933e-04 0
3.028061e+00 5.143906e-04 0
3.027602e+00 7.827209e-04 0
3.027099e+00 1.036191e-03 0
3.026552e+00 1.273735e-03 0
3.025959e+00 1.495523e-03 0
3.025321e+00 1.702811e-03 0
3.024638e+00 1.897037e-03 0
3.023912e+00 2.079440e-03 0
3.023146e+00 2.251015e-03 0
3.022341e+00 2.412563e-03 0
3.021500e+00 2.564730e-03 0
3.020624e+00 2.708044e-03 0
3.019715e+00 2.842956e-03 0
3.018776e+00 2.969874e-03 0
3.017807e+00 3.089192e-03 0
3.016811e+00 3.201294e-03 0
3.015788e+00 3.306555e-03 0
3.014741e+00 3.405322e-03 0
3.013671e+00 3.497914e-03 0
3.012580e+00 3.584627e-03 0
3.011467e+00 3.665746e-03 0
3.010336e+00 3.741548e-03 0
3.009187e+00 3.812307e-03 0
3.008020e+00 3.878283e-03 0
3.006838e+00 3.939722e-03 0
3.005641e+00 3.996853e-03 0
3.004429e+00 4.049896e-03 0
3.003205e+00 4.099060e-03 0
3.001968e+00 4.144548e-03 0
3.000720e+00 4.186552e-03 0
2.999462e+00 4.225255e-03 0
2.998193e+00 4.260828e-03 0
2.996915e+00 4.293431e-03 0
2.995629e+00 4.323217e-03 0
2.994335e+00 4.350330e-03 0
2.993033e+00 4.374906e-03 0
2.991724e+00 4.397077e-03 0
2.990409e+00 4.416970e-03 0
2.989089e+00 4.434706e-03 0
2.987763e+00 4.450400e-03 0
2.986432e+00 4.464158e-03 0
2.985097e+00 4.476072e-03 0
2.983757e+00 4.486227e-03 0
2.982414e+00 4.494709e-03 0
2.981068e+00 4.501602e-03 0
2.979719e+00 4.506994e-03 0
2.978367e+00 4.510969e-03 0
2.977013e+00 4.513602e-03 0
2.975657e+00 4.514954e-03 0
2.974300e+00 4.515079e-03 0
2.972941e+00 4.514029e-03 0
2.971581e+00 4.511855e-03 0
2.970220e+00 4.508613e-03 0
2.968858e+00 4.504357e-03 0
2.967496e+00 4.499135e-03 0
2.966134e+00 4.492984e-03 0
2.964772e+00 4.485938e-03 0
2.963410e+00 4.478028e-03 0
2.962048e+00 4.469284e-03 0
2.960688e+00 4.459735e-03 0
2.959328e+00 4.449411e-03 0
2.957969e+00 4.438336e-03 0
2.956611e+00 4.426530e-03 0
2.955254e+00 4.414009e-03 0
2.953900e+00 4.400789e-03 0
2.952547e+00 4.386884e-03 0
2.951195e+00 4.372307e-03 0
2.949846e+00 4.357072e-03 0
2.948499e+00 4.341186e-03 0
2.947154e+00 4.324655e-03 0
2.945812e+00 4.307483e-03 0
2.944473e+00 4.289673e-03 0
2.943136e+00 4.271228e-03 0
2.941802e+00 4.252150e-03 0
2.940472e+00 4.232440e-03 0
2.939145e+00 4.212096e-03 0
2.937821e+00 4.191115e-03 0
2.936501e+00 4.169491e-03 0
2.935185e+00 4.147217e-03 0
2.933872e+00 4.124287e-03 0
2.932564e+00 4.100691e-03 0
2.931260e+00 4.076418e-03 0
2.929961e+00 4.051452e-03 0
2.928666e+00 4.025774e-03 0
2.927376e+00 3.999358e-03 0
2.926091e+00 3.972171e-03 0
2.924812e+00 3.944169e-03 0
2.923537e+00 3.915291e-03 0
2.922269e+00 3.885451e-03 0
2.921006e+00 3.854528e-03 0
2.919749e+00 3.822346e-03 0
2.918498e+00 3.788651e-03 0
2.917254e+00 3.753070e-03 0
2.916017e+00 3.715053e-03 0
2.914787e+00 3.673778e-03 0
2.913564e+00 3.628006e-03 0
2.912348e+00 3.575875e-03 0
2.911140e+00 3.514692e-03 0
2.909937e+00 3.441065e-03 0
2.908733e+00 3.351786e-03 0
2.907519e+00 3.266897e-03 0
2.907519e+00 3.230908e-03 0
3.448285e+00 -1.970206e-04 0
3.448285e+00 -1.884398e-04 0
3.448337e+00 -1.546422e-04 0
3.448384e+00 -8.655888e-05 0
3.448421e+00 1.778491e-05 0
3.448446e+00 1.613253e-04 0
3.448453e+00 3.482291e-04 0
3.448437e+00 5.834393e-04 0
3.448391e+00 8.729984e-04 0
3.448309e+00 1.223965e-03 0
3.448183e+00 1.644327e-03 0
3.448002e+00 2.143053e-03 0
3.447755e+00 2.730142e-03 0
3.447431e+00 3.416689e-03 0
3.447015e+00 4.215082e-03 0
3.446493e+00 5.139270e-03 0
3.445847e+00 6.205073e-03 0
3.445059e+00 7.430723e-03 0
3.444110e+00 8.837542e-03 0
3.442978e+00 1.045083e-02 0
3.441638e+00 1.230102e-02 0
3.440063e+00 1.442527e-02 0
3.438224e+00 1.686949e-02 0
3.436086e+00 1.969081e-02 0
3.433603e+00 2.296098e-02 0
3.430718e+00 2.677073e-02 0
3.427343e+00 3.123490e-02 0
3.423337e+00 3.649624e-02 0
3.418442e+00 4.271841e-02 0
3.412157e+00 5.002998e-02 0
3.403471e+00 5.828747e-02 0
3.390432e+00 6.628236e-02 0
3.370032e+00 6.967351e-02 0
3.345998e+00 6.238717e-02 0
3.334660e+00 4.793284e-02 0
3.330616e+00 3.454057e-02 0
3.329666e+00 2.424780e-02 0
3.329840e+00 1.676934e-02 0
3.330346e+00 1.140409e-02 0
3.330890e+00 7.550615e-03 0
3.331378e+00 4.773324e-03 0
3.331782e+00 2.769886e-03 0
3.332094e+00 1.331160e-03 0
3.332315e+00 3.117951e-04 0
3.332452e+00 -3.930774e-04 0
3.332504e+00 -8.584040e-04 0
3.332479e+00 -1.135441e-03 0
3.332386e+00 -1.262796e-03 0
3.332236e+00 -1.270986e-03 0
3.332035e+00 -1.184817e-03 0
3.331793e+00 -1.024770e-03 0
3.331516e+00 -8.078728e-04 0
3.331209e+00 -5.480147e-04 0
3.330876e+00 -2.579989e-04 0
3.330520e+00 4.709324e-05 0
3.330144e+00 3.590454e-04 0
3.329742e+00 6.743191e-04 0
3.329310e+00 9.863432e-04 0
3.328850e+00 1.289744e-03 0
3.328360e+00 1.580644e-03 0
3.327838e+00 1.857129e-03 0
3.327284e+00 2.118580e-03 0
3.326696e+00 2.365276e-03 0
3.326077e+00 2.597918e-03 0
3.325425e+00 2.817324e-03 0
3.324744e+00 3.024287e-03 0
3.324034e+00 3.219524e-03 0
3.323297e+00 3.403665e-03 0
3.322534e+00 3.577267e-03 0
3.321746e+00 3.740835e-03 0
3.320935e+00 3.894851e-03 0
3.320102e+00 4.039781e-03 0