<?xml version="1.0"?>
<VTKFile type="StructuredGrid">
<StructuredGrid WholeExtent="0 158 0 30 0 0 ">
<Piece Extent="0 158 0 30 0 0 ">
<Points>
<DataArray type="Float64" format="ascii" NumberOfComponents="3">
0.000000e+00 0.000000e+00 0.000000e+00
3.164557e-02 0.000000e+00 0.000000e+00
6.329114e-02 0.000000e+00 0.000000e+00
9.493671e-02 0.000000e+00 0.000000e+00
1.265823e-01 0.000000e+00 0.000000e+00
1.582278e-01 0.000000e+00 0.000000e+00
1.898734e-01 0.000000e+00 0.000000e+00
2.215190e-01 0.000000e+00 0.000000e+00
2.531646e-01 0.000000e+00 0.000000e+00
2.848101e-01 0.000000e+00 0.000000e+00
3.164557e-01 0.000000e+00 0.000000e+00
3.481013e-01 0.000000e+00 0.000000e+00
3.797468e-01 0.000000e+00 0.000000e+00
4.113924e-01 0.000000e+00 0.000000e+00
4.430380e-01 0.000000e+00 0.000000e+00
4.746835e-01 0.000000e+00 0.000000e+00
5.063291e-01 0.000000e+00 0.000000e+00
5.379747e-01 0.000000e+00 0.000000e+00
5.696203e-01 0.000000e+00 0.000000e+00
6.012658e-01 0.000000e+00 0.000000e+00
6.329114e-01 0.000000e+00 0.000000e+00
6.645570e-01 0.000000e+00 0.000000e+00
6.962025e-01 0.000000e+00 0.000000e+00
7.278481e-01 0.000000e+00 0.000000e+00
7.594937e-01 0.000000e+00 0.000000e+00
7.911392e-01 0.000000e+00 0.000000e+00
8.227848e-01 0.000000e+00 0.000000e+00
8.544304e-01 0.000000e+00 0.000000e+00
8.860759e-01 0.000000e+00 0.000000e+00
9.177215e-01 0.000000e+00 0.000000e+00
9.493671e-01 0.000000e+00 0.000000e+00
9.810127e-01 0.000000e+00 0.000000e+00
1.012658e+00 0.000000e+00 0.000000e+00
1.044304e+00 0.000000e+00 0.000000e+00
1.075949e+00 0.000000e+00 0.000000e+00
1.107595e+00 0.000000e+00 0.000000e+00
1.139241e+00 0.000000e+00 0.000000e+00
1.170886e+00 0.000000e+00 0.000000e+00
1.202532e+00 0.000000e+00 0.000000e+00
1.234177e+00 0.000000e+00 0.000000e+00
1.265823e+00 0.000000e+00 0.000000e+00
1.297468e+00 0.000000e+00 0.000000e+00
1.329114e+00 0.000000e+00 0.000000e+00
1.360759e+00 0.000000e+00 0.000000e+00
1.392405e+00 0.000000e+00 0.000000e+00
1.424051e+00 0.000000e+00 0.000000e+00
1.455696e+00 0.000000e+00 0.000000e+00
1.487342e+00 0.000000e+00 0.000000e+00
1.518987e+00 0.000000e+00 0.000000e+00
1.550633e+00 0.000000e+00 0.000000e+00
1.582278e+00 0.000000e+00 0.000000e+00
1.613924e+00 0.000000e+00 0.000000e+00
1.645570e+00 0.000000e+00 0.000000e+00
1.677215e+00 0.000000e+00 0.000000e+00
1.708861e+00 0.000000e+00 0.000000e+00
1.740506e+00 0.000000e+00 0.000000e+00
1.772152e+00 0.000000e+00 0.000000e+00
1.803797e+00 0.000000e+00 0.000000e+00
1.835443e+00 0.000000e+00 0.000000e+00
1.867089e+00 0.000000e+00 0.000000e+00
1.898734e+00 0.000000e+00 0.000000e+00
1.930380e+00 0.000000e+00 0.000000e+00
1.962025e+00 0.000000e+00 0.000000e+00
1.993671e+00 0.000000e+00 0.000000e+00
2.025316e+00 0.000000e+00 0.000000e+00
2.056962e+00 0.000000e+00 0.000000e+00
2.088608e+00 0.000000e+00 0.000000e+00
2.120253e+00 0.000000e+00 0.000000e+00
2.151899e+00 0.000000e+00 0.000000e+00
2.183544e+00 0.000000e+00 0.000000e+00
2.215190e+00 0.000000e+00 0.000000e+00
2.246835e+00 0.000000e+00 0.000000e+00
2.278481e+00 0.000000e+00 0.000000e+00
2.310127e+00 0.000000e+00 0.000000e+00
2.341772e+00 0.000000e+00 0.000000e+00
2.373418e+00 0.000000e+00 0.000000e+00
2.405063e+00 0.000000e+00 0.000000e+00
2.436709e+00 0.000000e+00 0.000000e+00
2.468354e+00 0.000000e+00 0.000000e+00
2.500000e+00 0.000000e+00 0.000000e+00
2.531646e+00 0.000000e+00 0.000000e+00
2.563291e+00 0.000000e+00 0.000000e+00
2.594937e+00 0.000000e+00 0.000000e+00
2.626582e+00 0.000000e+00 0.000000e+00
2.658228e+00 0.000000e+00 0.000000e+00
2.689873e+00 0.000000e+00 0.000000e+00
2.721519e+00 0.000000e+00 0.000000e+00
2.753165e+00 0.000000e+00 0.000000e+00
2.784810e+00 0.000000e+00 0.000000e+00
2.816456e+00 0.000000e+00 0.000000e+00
2.848101e+00 0.000000e+00 0.000000e+00
2.879747e+00 0.000000e+00 0.000000e+00
2.911392e+00 0.000000e+00 0.000000e+00
2.943038e+00 0.000000e+00 0.000000e+00
2.974684e+00 0.000000e+00 0.000000e+00
3.006329e+00 0.000000e+00 0.000000e+00
3.037975e+00 0.000000e+00 0.000000e+00
3.069620e+00 0.000000e+00 0.000000e+00
3.101266e+00 0.000000e+00 0.000000e+00
3.132911e+00 0.000000e+00 0.000000e+00
3.164557e+00 0.000000e+00 0.000000e+00
3.196203e+00 0.000000e+00 0.000000e+00
3.227848e+00 0.000000e+00 0.000000e+00
3.259494e+00 0.000000e+00 0.000000e+00
3.291139e+00 0.000000e+00 0.000000e+00
3.322785e+00 0.000000e+00 0.000000e+00
3.354430e+00 0.000000e+00 0.000000e+00
3.386076e+00 0.000000e+00 0.000000e+00
3.417722e+00 0.000000e+00 0.000000e+00
3.449367e+00 0.000000e+00 0.000000e+00
3.481013e+00 0.000000e+00 0.000000e+00
3.512658e+00 0.000000e+00 0.000000e+00
3.544304e+00 0.000000e+00 0.000000e+00
3.575949e+00 0.000000e+00 0.000000e+00
3.607595e+00 0.000000e+00 0.000000e+00
3.639241e+00 0.000000e+00 0.000000e+00
3.670886e+00 0.000000e+00 0.000000e+00
3.702532e+00 0.000000e+00 0.000000e+00
3.734177e+00 0.000000e+00 0.000000e+00
3.765823e+00 0.000000e+00 0.000000e+00
3.797468e+00 0.000000e+00 0.000000e+00
3.829114e+00 0.000000e+00 0.000000e+00
3.860759e+00 0.000000e+00 0.000000e+00
3.892405e+00 0.000000e+00 0.000000e+00
3.924051e+00 0.000000e+00 0.000000e+00
3.955696e+00 0.000000e+00 0.000000e+00
3.987342e+00 0.000000e+00 0.000000e+00
4.018987e+00 0.000000e+00 0.000000e+00
4.050633e+00 0.000000e+00 0.000000e+00
4.082278e+00 0.000000e+00 0.000000e+00
4.113924e+00 0.000000e+00 0.000000e+00
4.145570e+00 0.000000e+00 0.000000e+00
4.177215e+00 0.000000e+00 0.000000e+00
4.208861e+00 0.000000e+00 0.000000e+00
4.240506e+00 0.000000e+00 0.000000e+00
4.272152e+00 0.000000e+00 0.000000e+00
4.303797e+00 0.000000e+00 0.000000e+00
4.335443e+00 0.000000e+00 0.000000e+00
4.367089e+00 0.000000e+00 0.000000e+00
4.398734e+00 0.000000e+00 0.000000e+00
4.430380e+00 0.000000e+00 0.000000e+00
4.462025e+00 0.000000e+00 0.000000e+00
4.493671e+00 0.000000e+00 0.000000e+00
4.525316e+00 0.000000e+00 0.000000e+00
4.556962e+00 0.000000e+00 0.000000e+00
4.588608e+00 0.000000e+00 0.000000e+00
4.620253e+00 0.000000e+00 0.000000e+00
4.651899e+00 0.000000e+00 0.000000e+00
4.683544e+00 0.000000e+00 0.000000e+00
4.715190e+00 0.000000e+00 0.000000e+00
4.746835e+00 0.000000e+00 0.000000e+00
4.778481e+00 0.000000e+00 0.000000e+00
4.810127e+00 0.000000e+00 0.000000e+00
4.841772e+00 0.000000e+00 0.000000e+00
4.873418e+00 0.000000e+00 0.000000e+00
4.905063e+00 0.000000e+00 0.000000e+00
4.936709e+00 0.000000e+00 0.000000e+00
4.968354e+00 0.000000e+00 0.000000e+00
5.000000e+00 0.000000e+00 0.000000e+00
0.000000e+00 3.333333e-02 0.000000e+00
3.164557e-02 3.333333e-02 0.000000e+00
6.329114e-02 3.333333e-02 0.000000e+00
9.493671e-02 3.333333e-02 0.000000e+00
1.265823e-01 3.333333e-02 0.000000e+00
1.582278e-01 3.333333e-02 0.000000e+00
1.898734e-01 3.333333e-02 0.000000e+00
2.215190e-01 3.333333e-02 0.000000e+00
2.531646e-01 3.333333e-02 0.000000e+00
2.848101e-01 3.333333e-02 0.000000e+00
3.164557e-01 3.333333e-02 0.000000e+00
3.481013e-01 3.333333e-02 0.000000e+00
3.797468e-01 3.333333e-02 0.000000e+00
4.113924e-01 3.333333e-02 0.000000e+00
4.430380e-01 3.333333e-02 0.000000e+00
4.746835e-01 3.333333e-02 0.000000e+00
5.063291e-01 3.333333e-02 0.000000e+00
5.379747e-01 3.333333e-02 0.000000e+00
5.696203e-01 3.333333e-02 0.000000e+00
6.012658e-01 3.333333e-02 0.000000e+00
6.329114e-01 3.333333e-02 0.000000e+00
6.645570e-01 3.333333e-02 0.000000e+00
6.962025e-01 3.333333e-02 0.000000e+00
7.278481e-01 3.333333e-02 0.000000e+00
7.594937e-01 3.333333e-02 0.000000e+00
7.911392e-01 3.333333e-02 0.000000e+00
8.227848e-01 3.333333e-02 0.000000e+00
8.544304e-01 3.333333e-02 0.000000e+00
8.860759e-01 3.333333e-02 0.000000e+00
9.177215e-01 3.333333e-02 0.000000e+00
9.493671e-01 3.333333e-02 0.000000e+00
9.810127e-01 3.333333e-02 0.000000e+00
1.012658e+00 3.333333e-02 0.000000e+00
1.044304e+00 3.333333e-02 0.000000e+00
1.075949e+00 3.333333e-02 0.000000e+00
1.107595e+00 3.333333e-02 0.000000e+00
1.139241e+00 3.333333e-02 0.000000e+00
1.170886e+00 3.333333e-02 0.000000e+00
1.202532e+00 3.333333e-02 0.000000e+00
1.234177e+00 3.333333e-02 0.000000e+00
1.265823e+00 3.333333e-02 0.000000e+00
1.297468e+00 3.333333e-02 0.000000e+00
1.329114e+00 3.333333e-02 0.000000e+00
1.360759e+00 3.333333e-02 0.000000e+00
1.392405e+00 3.333333e-02 0.000000e+00
1.424051e+00 3.333333e-02 0.000000e+00
1.455696e+00 3.333333e-02 0.000000e+00
1.487342e+00 3.333333e-02 0.000000e+00
1.518987e+00 3.333333e-02 0.000000e+00
1.550633e+00 3.333333e-02 0.000000e+00
1.582278e+00 3.333333e-02 0.000000e+00
1.613924e+00 3.333333e-02 0.000000e+00
1.645570e+00 3.333333e-02 0.000000e+00
1.677215e+00 3.333333e-02 0.000000e+00
1.708861e+00 3.333333e-02 0.000000e+00
1.740506e+00 3.333333e-02 0.000000e+00
1.772152e+00 3.333333e-02 0.000000e+00
1.803797e+00 3.333333e-02 0.000000e+00
1.835443e+00 3.333333e-02 0.000000e+00
1.867089e+00 3.333333e-02 0.000000e+00
1.898734e+00 3.333333e-02 0.000000e+00
1.930380e+00 3.333333e-02 0.000000e+00
1.962025e+00 3.333333e-02 0.000000e+00
1.993671e+00 3.333333e-02 0.000000e+00
2.025316e+00 3.333333e-02 0.000000e+00
2.056962e+00 3.333333e-02 0.000000e+00
2.088608e+00 3.333333e-02 0.000000e+00
2.120253e+00 3.333333e-02 0.000000e+00
2.151899e+00 3.333333e-02 0.000000e+00
2.183544e+00 3.333333e-02 0.000000e+00
2.215190e+00 3.333333e-02 0.000000e+00
2.246835e+00 3.333333e-02 0.000000e+00
2.278481e+00 3.333333e-02 0.000000e+00
2.310127e+00 3.333333e-02 0.000000e+00
2.341772e+00 3.333333e-02 0.000000e+00
2.373418e+00 3.333333e-02 0.000000e+00
2.405063e+00 3.333333e-02 0.000000e+00
2.436709e+00 3.333333e-02 0.000000e+00
2.468354e+00 3.333333e-02 0.000000e+00
2.500000e+00 3.333333e-02 0.000000e+00
2.531646e+00 3.333333e-02 0.000000e+00
2.563291e+00 3.333333e-02 0.000000e+00
2.594937e+00 3.333333e-02 0.000000e+00
2.626582e+00 3.333333e-02 0.000000e+00
2.658228e+00 3.333333e-02 0.000000e+00
2.689873e+00 3.333333e-02 0.000000e+00
2.721519e+00 3.333333e-02 0.000000e+00
2.753165e+00 3.333333e-02 0.000000e+00
2.784810e+00 3.333333e-02 0.000000e+00
2.816456e+00 3.333333e-02 0.000000e+00
2.848101e+00 3.333333e-02 0.000000e+00
2.879747e+00 3.333333e-02 0.000000e+00
[...]
<PointData>
<DataArray Name="Velocity" type="Float64" format="ascii" NumberOfComponents="3">
0.000000e+00 0.000000e+00 0
0.000000e+00 0.000000e+00 0
0.000000e+00 0.000000e+00 0
0.000000e+00 0.000000e+00 0
0.000000e+00 0.000000e+00 0
0.000000e+00 0.000000e+00 0
0.000000e+00 0.000000e+00 0
0.000000e+00 0.000000e+00 0
0.000000e+00 0.000000e+00 0
0.000000e+00 0.000000e+00 0
0.000000e+00 0.000000e+00 0
0.000000e+00 0.000000e+00 0
0.000000e+00 0.000000e+00 0
0.000000e+00 0.000000e+00 0
0.000000e+00 0.000000e+00 0
0.000000e+00 0.000000e+00 0
0.000000e+00 0.000000e+00 0
0.000000e+00 0.000000e+00 0
0.000000e+00 0.000000e+00 0
-2.801232e-17 0.000000e+00 0
0.000000e+00 0.000000e+00 0
0.000000e+00 0.000000e+00 0
0.000000e+00 0.000000e+00 0
5.266595e-17 0.000000e+00 0
0.000000e+00 0.000000e+00 0
0.000000e+00 0.000000e+00 0
0.000000e+00 0.000000e+00 0
-2.304647e-18 0.000000e+00 0
0.000000e+00 0.000000e+00 0
0.000000e+00 0.000000e+00 0
0.000000e+00 0.000000e+00 0
2.023348e-17 0.000000e+00 0
0.000000e+00 0.000000e+00 0
0.000000e+00 0.000000e+00 0
0.000000e+00 0.000000e+00 0
0.000000e+00 0.000000e+00 0
0.000000e+00 0.000000e+00 0
0.000000e+00 0.000000e+00 0
-4.960201e-17 0.000000e+00 0
0.000000e+00 0.000000e+00 0
0.000000e+00 0.000000e+00 0
0.000000e+00 0.000000e+00 0
0.000000e+00 0.000000e+00 0
0.000000e+00 0.000000e+00 0
0.000000e+00 0.000000e+00 0
0.000000e+00 0.000000e+00 0
-5.472622e-17 0.000000e+00 0
0.000000e+00 0.000000e+00 0
0.000000e+00 0.000000e+00 0
0.000000e+00 0.000000e+00 0
0.000000e+00 0.000000e+00 0
0.000000e+00 0.000000e+00 0
0.000000e+00 0.000000e+00 0
0.000000e+00 0.000000e+00 0
-2.781320e-17 0.000000e+00 0
0.000000e+00 0.000000e+00 0
0.000000e+00 0.000000e+00 0
0.000000e+00 0.000000e+00 0
0.000000e+00 0.000000e+00 0
0.000000e+00 0.000000e+00 0
0.000000e+00 0.000000e+00 0
0.000000e+00 0.000000e+00 0
-2.750205e-17 0.000000e+00 0
0.000000e+00 0.000000e+00 0
0.000000e+00 0.000000e+00 0
0.000000e+00 0.000000e+00 0
0.000000e+00 0.000000e+00 0
0.000000e+00 0.000000e+00 0
0.000000e+00 0.000000e+00 0
0.000000e+00 0.000000e+00 0
0.000000e+00 0.000000e+00 0
0.000000e+00 0.000000e+00 0
0.000000e+00 0.000000e+00 0
0.000000e+00 0.000000e+00 0
0.000000e+00 0.000000e+00 0
0.000000e+00 0.000000e+00 0
0.000000e+00 0.000000e+00 0
0.000000e+00 0.000000e+00 0
0.000000e+00 0.000000e+00 0
0.000000e+00 0.000000e+00 0
0.000000e+00 0.000000e+00 0
0.000000e+00 0.000000e+00 0
0.000000e+00 0.000000e+00 0
0.000000e+00 0.000000e+00 0
0.000000e+00 0.000000e+00 0
0.000000e+00 0.000000e+00 0
0.000000e+00 0.000000e+00 0
0.000000e+00 0.000000e+00 0
0.000000e+00 0.000000e+00 0
0.000000e+00 0.000000e+00 0
0.000000e+00 0.000000e+00 0
0.000000e+00 0.000000e+00 0
0.000000e+00 0.000000e+00 0
0.000000e+00 0.000000e+00 0
0.000000e+00 0.000000e+00 0
0.000000e+00 0.000000e+00 0
0.000000e+00 0.000000e+00 0
0.000000e+00 0.000000e+00 0
0.000000e+00 0.000000e+00 0
0.000000e+00 0.000000e+00 0
0.000000e+00 0.000000e+00 0
0.000000e+00 0.000000e+00 0
0.000000e+00 0.000000e+00 0
0.000000e+00 0.000000e+00 0
0.000000e+00 0.000000e+00 0
0.000000e+00 0.000000e+00 0
0.000000e+00 0.000000e+00 0
0.000000e+00 0.000000e+00 0
0.000000e+00 0.000000e+00 0
0.000000e+00 0.000000e+00 0
0.000000e+00 0.000000e+00 0
0.000000e+00 0.000000e+00 0
0.000000e+00 0.000000e+00 0
0.000000e+00 0.000000e+00 0
0.000000e+00 0.000000e+00 0
0.000000e+00 0.000000e+00 0
0.000000e+00 0.000000e+00 0
0.000000e+00 0.000000e+00 0
0.000000e+00 0.000000e+00 0
0.000000e+00 0.000000e+00 0
0.000000e+00 0.000000e+00 0
0.000000e+00 0.000000e+00 0
0.000000e+00 0.000000e+00 0
0.000000e+00 0.000000e+00 0
0.000000e+00 0.000000e+00 0
0.000000e+00 0.000000e+00 0
0.000000e+00 0.000000e+00 0
0.000000e+00 0.000000e+00 0
0.000000e+00 0.000000e+00 0
0.000000e+00 0.000000e+00 0
0.000000e+00 0.000000e+00 0
0.000000e+00 0.000000e+00 0
0.000000e+00 0.000000e+00 0
0.000000e+00 0.000000e+00 0
0.000000e+00 0.000000e+00 0
0.000000e+00 0.000000e+00 0
0.000000e+00 0.000000e+00 0
0.000000e+00 0.000000e+00 0
0.000000e+00 0.000000e+00 0
0.000000e+00 0.000000e+00 0
0.000000e+00 0.000000e+00 0
0.000000e+00 0.000000e+00 0
0.000000e+00 0.000000e+00 0
0.000000e+00 0.000000e+00 0
0.000000e+00 0.000000e+00 0
0.000000e+00 0.000000e+00 0
0.000000e+00 0.000000e+00 0
0.000000e+00 0.000000e+00 0
0.000000e+00 0.000000e+00 0
0.000000e+00 0.000000e+00 0
0.000000e+00 0.000000e+00 0
0.000000e+00 0.000000e+00 0
0.000000e+00 0.000000e+00 0
0.000000e+00 0.000000e+00 0
0.000000e+00 0.000000e+00 0
0.000000e+00 0.000000e+00 0
0.000000e+00 0.000000e+00 0
0.000000e+00 0.000000e+00 0
0.000000e+00 0.000000e+00 0
1.913690e+00 -2.878936e-05 0
1.913690e+00 -2.991214e-05 0
1.913714e+00 -2.352833e-05 0
1.913725e+00 -3.679915e-06 0
1.913713e+00 2.564306e-05 0
1.913668e+00 6.512176e-05 0
1.913580e+00 1.162938e-04 0
1.913438e+00 1.805175e-04 0
1.913227e+00 2.592778e-04 0
1.912934e+00 3.542706e-04 0
1.912542e+00 4.674518e-04 0
1.912033e+00 6.010381e-04 0
1.911386e+00 7.575168e-04 0
1.910578e+00 9.396761e-04 0
1.909584e+00 1.150642e-03 0
1.908374e+00 1.393961e-03 0
1.906915e+00 1.673693e-03 0
1.905171e+00 1.994549e-03 0
1.903101e+00 2.362064e-03 0
1.900656e+00 2.782816e-03 0
1.897783e+00 3.264644e-03 0
1.894420e+00 3.816936e-03 0
1.890494e+00 4.450880e-03 0
1.885921e+00 5.179584e-03 0
1.880604e+00 6.017790e-03 0
1.874430e+00 6.980579e-03 0
1.867271e+00 8.079990e-03 0
1.858988e+00 9.317460e-03 0
1.849442e+00 1.066885e-02 0
1.838533e+00 1.205829e-02 0
1.826257e+00 1.332130e-02 0
1.812826e+00 1.417622e-02 0
1.798822e+00 1.426462e-02 0
1.785261e+00 1.335333e-02 0
1.773268e+00 1.159726e-02 0
1.763420e+00 9.444215e-03 0
1.755757e+00 7.305545e-03 0
1.750026e+00 5.419850e-03 0
1.745871e+00 3.872321e-03 0
1.742948e+00 2.656881e-03 0
1.740962e+00 1.726758e-03 0
1.739679e+00 1.022561e-03 0
1.738922e+00 4.802338e-04 0
1.738563e+00 -9.757644e-06 0
1.738505e+00 -4.500832e-04 0
1.738681e+00 -7.744346e-04 0
1.739025e+00 -9.971183e-04 0
1.739477e+00 -1.132549e-03 0
1.739988e+00 -1.195043e-03 0
1.740516e+00 -1.197961e-03 0
1.741028e+00 -1.153203e-03 0
1.741498e+00 -1.071067e-03 0
1.741906e+00 -9.603152e-04 0
1.742237e+00 -8.282782e-04 0
1.742479e+00 -6.808205e-04 0
1.742626e+00 -5.226352e-04 0
1.742674e+00 -3.554201e-04 0
1.742636e+00 -1.915562e-04 0
1.742519e+00 -5.556972e-05 0
1.742329e+00 4.361671e-05 0
1.742072e+00 1.193764e-04 0
1.741753e+00 1.853674e-04 0
1.741377e+00 2.456951e-04 0
1.740947e+00 3.018498e-04 0
1.740466e+00 3.545121e-04 0
1.739938e+00 4.040642e-04 0
1.739366e+00 4.507468e-04 0
1.738750e+00 4.947219e-04 0
1.738095e+00 5.361125e-04 0
1.737403e+00 5.750329e-04 0
1.736675e+00 6.116010e-04 0
1.735913e+00 6.459335e-04 0
1.735120e+00 6.781338e-04 0
1.734298e+00 7.082873e-04 0
1.733448e+00 7.364690e-04 0
1.732573e+00 7.627595e-04 0
1.731673e+00 7.872539e-04 0
1.730751e+00 8.100572e-04 0
1.729808e+00 8.312687e-04 0
1.728845e+00 8.509676e-04 0
1.727864e+00 8.692116e-04 0
1.726866e+00 8.860505e-04 0
1.725852e+00 9.015433e-04 0
1.724824e+00 9.157663e-04 0
1.723782e+00 9.288052e-04 0
1.722728e+00 9.407379e-04 0
1.721663e+00 9.516220e-04 0
1.720588e+00 9.614964e-04 0
1.719503e+00 9.703955e-04 0
1.718409e+00 9.783636e-04 0
1.717308e+00 9.854584e-04 0
1.716200e+00 9.917415e-04 0
1.715085e+00 9.972656e-04 0
1.713965e+00 1.002067e-03 0
1.712840e+00 1.006172e-03 0
1.711711e+00 1.009607e-03 0
1.710578e+00 1.012407e-03 0
1.709442e+00 1.014616e-03 0
1.708304e+00 1.016273e-03 0
1.707163e+00 1.017413e-03 0
1.706021e+00 1.018056e-03 0
1.704878e+00 1.018218e-03 0
1.703734e+00 1.017918e-03 0
1.702589e+00 1.017183e-03 0
1.701445e+00 1.016043e-03 0
1.700301e+00 1.014524e-03 0
1.699158e+00 1.012648e-03 0
1.698016e+00 1.010430e-03 0
1.696876e+00 1.007880e-03 0
1.695737e+00 1.005011e-03 0
1.694601e+00 1.001836e-03 0
1.693466e+00 9.983721e-04 0
1.692335e+00 9.946375e-04 0
1.691206e+00 9.906463e-04 0
1.690080e+00 9.864091e-04 0
1.688958e+00 9.819335e-04 0
1.687839e+00 9.772258e-04 0
1.686724e+00 9.722934e-04 0
1.685613e+00 9.671450e-04 0
1.684506e+00 9.617902e-04 0
1.683403e+00 9.562377e-04 0
1.682305e+00 9.504941e-04 0
1.681212e+00 9.445638e-04 0
1.680124e+00 9.384497e-04 0
1.679040e+00 9.321546e-04 0
1.677962e+00 9.256821e-04 0
1.676890e+00 9.190361e-04 0
1.675823e+00 9.122204e-04 0
1.674762e+00 9.052375e-04 0
1.673707e+00 8.980890e-04 0
1.672658e+00 8.907756e-04 0
1.671615e+00 8.832978e-04 0
1.670578e+00 8.756560e-04 0
1.669548e+00 8.678505e-04 0
1.668525e+00 8.598814e-04 0
1.667509e+00 8.517481e-04 0
1.666500e+00 8.434499e-04 0
1.665498e+00 8.349850e-04 0
1.664504e+00 8.263512e-04 0
1.663517e+00 8.175455e-04 0
1.662538e+00 8.085637e-04 0
1.661567e+00 7.994001e-04 0
1.660604e+00 7.900461e-04 0
1.659649e+00 7.804897e-04 0
1.658703e+00 7.707134e-04 0
1.657766e+00 7.606912e-04 0
1.656837e+00 7.503851e-04 0
1.655918e+00 7.397393e-04 0
1.655009e+00 7.286697e-04 0
1.654110e+00 7.170495e-04 0
1.653221e+00 7.046819e-04 0
1.652344e+00 6.912536e-04 0
1.651480e+00 6.762387e-04 0
1.650630e+00 6.586896e-04 0
1.649797e+00 6.365495e-04 0
1.648986e+00 6.059567e-04 0
1.648205e+00 5.311598e-04 0
1.647466e+00 6.014061e-04 0
1.647466e+00 7.284350e-04 0
3.054314e+00 -5.733703e-05 0
3.054314e+00 -5.391786e-05 0
3.054335e+00 -3.633115e-05 0
3.054345e+00 1.571884e-06 0
3.054335e+00 5.950315e-05 0
3.054295e+00 1.391585e-04 0
3.054217e+00 2.424696e-04 0
3.054090e+00 3.719255e-04 0
3.053902e+00 5.304830e-04 0
3.053641e+00 7.215928e-04 0
3.053290e+00 9.492058e-04 0
3.052835e+00 1.217777e-03 0
3.052257e+00 1.532303e-03 0
3.051534e+00 1.898378e-03 0
3.050644e+00 2.322284e-03 0
3.049560e+00 2.811149e-03 0
3.048253e+00 3.373128e-03 0
3.046691e+00 4.017688e-03 0
3.044836e+00 4.755952e-03 0
3.042646e+00 5.601107e-03 0
3.040073e+00 6.568922e-03 0
3.037062e+00 7.678347e-03 0
3.033548e+00 8.952084e-03 0
3.029456e+00 1.041695e-02 0
3.024699e+00 1.210350e-02 0
3.019170e+00 1.404395e-02 0
3.012747e+00 1.626617e-02 0
3.005284e+00 1.877959e-02 0
2.996614e+00 2.154568e-02 0
2.986564e+00 2.442260e-02 0
2.975002e+00 2.707777e-02 0
2.961970e+00 2.889738e-02 0
2.947977e+00 2.903508e-02 0
2.934394e+00 2.691732e-02 0
2.922998e+00 2.300642e-02 0
2.914249e+00 1.844415e-02 0
2.907835e+00 1.410787e-02 0
2.903241e+00 1.041337e-02 0
2.899998e+00 7.455522e-03 0
2.897739e+00 5.171581e-03 0
2.896195e+00 3.443917e-03 0
2.895167e+00 2.149083e-03 0
2.894513e+00 1.175250e-03 0
2.894115e+00 4.391360e-04 0
2.893830e+00 -1.245832e-04 0
2.893617e+00 -5.480988e-04 0
2.893448e+00 -8.382428e-04 0
2.893304e+00 -1.013696e-03 0
2.893168e+00 -1.093584e-03 0
2.893029e+00 -1.095517e-03 0
2.892877e+00 -1.035012e-03 0
2.892704e+00 -9.254632e-04 0
2.892505e+00 -7.783545e-04 0
2.892275e+00 -6.034650e-04 0
2.892013e+00 -4.089053e-04 0
2.891721e+00 -2.046851e-04 0
2.891405e+00 -1.079613e-05 0
2.891068e+00 1.633203e-04 0
2.890706e+00 3.233263e-04 0
2.890305e+00 4.710418e-04 0
2.889854e+00 6.069515e-04 0
2.889352e+00 7.323571e-04 0
2.888801e+00 8.492133e-04 0
2.888203e+00 9.588354e-04 0
2.887560e+00 1.062054e-03 0
2.886876e+00 1.159410e-03 0
2.886151e+00 1.251278e-03 0
2.885389e+00 1.337938e-03 0
2.884591e+00 1.419630e-03 0
2.883760e+00 1.496582e-03 0
2.882896e+00 1.569017e-03 0
2.882003e+00 1.637142e-03 0
2.881081e+00 1.701140e-03 0
2.880133e+00 1.761175e-03 0
2.879159e+00 1.817408e-03 0
2.878162e+00 1.870011e-03 0
2.877143e+00 1.919173e-03 0
2.876104e+00 1.965078e-03 0
2.875045e+00 2.007894e-03 0
2.873967e+00 2.047756e-03 0
2.872873e+00 2.084787e-03 0
2.871763e+00 2.119104e-03 0
2.870639e+00 2.150846e-03 0
2.869500e+00 2.180159e-03 0
2.868349e+00 2.207190e-03 0
2.867186e+00 2.232063e-03 0
2.866013e+00 2.254877e-03 0
2.864829e+00 2.275717e-03 0
2.863636e+00 2.294672e-03 0
2.862434e+00 2.311843e-03 0
2.861224e+00 2.327339e-03 0
2.860008e+00 2.341259e-03 0
2.858784e+00 2.353689e-03 0
2.857555e+00 2.364695e-03 0
2.856321e+00 2.374340e-03 0
2.855081e+00 2.382690e-03 0
2.853838e+00 2.389818e-03 0
2.852591e+00 2.395799e-03 0
2.851340e+00 2.400698e-03 0
2.850086e+00 2.404570e-03 0
2.848830e+00 2.407459e-03 0
2.847573e+00 2.409407e-03 0
2.846313e+00 2.410461e-03 0
2.845052e+00 2.410673e-03 0
2.843790e+00 2.410091e-03 0
2.842527e+00 2.408758e-03 0
2.841265e+00 2.406710e-03 0
2.840002e+00 2.403975e-03 0
2.838739e+00 2.400582e-03 0
2.837477e+00 2.396560e-03 0
2.836216e+00 2.391939e-03 0
2.834956e+00 2.386749e-03 0
2.833697e+00 2.381019e-03 0
2.832439e+00 2.374770e-03 0
2.831184e+00 2.368023e-03 0
2.829930e+00 2.360792e-03 0
2.828678e+00 2.353096e-03 0
2.827429e+00 2.344949e-03 0
2.826182e+00 2.336371e-03 0
2.824938e+00 2.327376e-03 0
2.823697e+00 2.317977e-03 0
2.822459e+00 2.308185e-03 0
2.821224e+00 2.298008e-03 0
2.819993e+00 2.287454e-03 0
2.818765e+00 2.276528e-03 0
2.817541e+00 2.265240e-03 0
2.816321e+00 2.253595e-03 0
2.815105e+00 2.241599e-03 0
2.813893e+00 2.229256e-03 0
2.812686e+00 2.216566e-03 0
2.811483e+00 2.203533e-03 0
2.810285e+00 2.190156e-03 0
2.809091e+00 2.176437e-03 0
2.807903e+00 2.162376e-03 0
2.806720e+00 2.147973e-03 0
2.805542e+00 2.133225e-03 0
2.804370e+00 2.118130e-03 0
2.803203e+00 2.102684e-03 0
2.802042e+00 2.086884e-03 0
2.800887e+00 2.070721e-03 0
2.799738e+00 2.054189e-03 0
2.798596e+00 2.037274e-03 0
2.797459e+00 2.019960e-03 0
2.796330e+00 2.002222e-03 0
2.795207e+00 1.984024e-03 0
2.794092e+00 1.965315e-03 0
2.792984e+00 1.946020e-03 0
2.791883e+00 1.926026e-03 0
2.790790e+00 1.905170e-03 0
2.789706e+00 1.883202e-03 0
2.788630e+00 1.859741e-03 0
2.787563e+00 1.834185e-03 0
2.786507e+00 1.805560e-03 0
2.785462e+00 1.772207e-03 0
2.784430e+00 1.731203e-03 0
2.783412e+00 1.677112e-03 0
2.782408e+00 1.601275e-03 0
2.781390e+00 1.582934e-03 0
2.781390e+00 1.609221e-03 0
3.699751e+00 -8.822425e-05 0
3.699751e+00 -8.180896e-05 0
3.699779e+00 -5.570829e-05 0
3.699797e+00 -2.925568e-06 0
3.699801e+00 7.775505e-05 0
3.699784e+00 1.885768e-04 0
3.699739e+00 3.322708e-04 0
3.699658e+00 5.123118e-04 0
3.699533e+00 7.328834e-04 0
3.699354e+00 9.988637e-04 0
3.699110e+00 1.315809e-03 0
3.698789e+00 1.689976e-03 0
3.698376e+00 2.128357e-03 0
3.697856e+00 2.638750e-03 0
3.697211e+00 3.229895e-03 0
3.696423e+00 3.911659e-03 0
3.695468e+00 4.695303e-03 0
3.694323e+00 5.593871e-03 0
3.692960e+00 6.622639e-03 0
3.691349e+00 7.799719e-03 0
3.689455e+00 9.146860e-03 0
3.687238e+00 1.069037e-02 0
3.684654e+00 1.246216e-02 0
3.681647e+00 1.450083e-02 0
3.678153e+00 1.685228e-02 0
3.674092e+00 1.956919e-02 0
3.669356e+00 2.270699e-02 0
3.663803e+00 2.631162e-02 0
3.657226e+00 3.038769e-02 0
3.649315e+00 3.482306e-02 0
3.639633e+00 3.922643e-02 0
3.627673e+00 4.264216e-02 0
3.613377e+00 4.331154e-02 0
3.598898e+00 3.966495e-02 0
3.588431e+00 3.281684e-02 0
3.581766e+00 2.541599e-02 0
3.577669e+00 1.890054e-02 0
3.575138e+00 1.367454e-02 0
3.573547e+00 9.667510e-03 0
3.572534e+00 6.663177e-03 0
3.571891e+00 4.435992e-03 0
3.571490e+00 2.794273e-03 0
3.571247e+00 1.587994e-03 0
3.571096e+00 7.087946e-04 0
3.570992e+00 7.517399e-05 0
3.570892e+00 -3.717996e-04 0
3.570779e+00 -6.672359e-04 0
3.570646e+00 -8.374540e-04 0
3.570492e+00 -9.054404e-04 0
3.570314e+00 -8.909508e-04 0
3.570114e+00 -8.108208e-04 0
3.569891e+00 -6.793687e-04 0
3.569645e+00 -5.088994e-04 0
3.569378e+00 -3.100637e-04 0
3.569093e+00 -9.673415e-05 0
3.568791e+00 1.182351e-04 0
3.568473e+00 3.327441e-04 0
3.568125e+00 5.445351e-04 0
3.567743e+00 7.480183e-04 0
3.567325e+00 9.411136e-04 0
3.566869e+00 1.123175e-03 0
3.566375e+00 1.294498e-03 0
3.565844e+00 1.455911e-03 0
3.565277e+00 1.608236e-03 0
3.564675e+00 1.752141e-03 0
3.564040e+00 1.888145e-03 0
3.563374e+00 2.016653e-03 0
3.562678e+00 2.138006e-03 0
3.561955e+00 2.252519e-03 0
3.561204e+00 2.360499e-03 0
3.560429e+00 2.462238e-03 0
3.559629e+00 2.558008e-03 0
3.558808e+00 2.648055e-03 0
3.557965e+00 2.732613e-03 0
3.557102e+00 2.811916e-03 0
3.556221e+00 2.886211e-03 0
3.555322e+00 2.955755e-03 0
3.554407e+00 3.020788e-03 0
3.553476e+00 3.081526e-03 0
3.552531e+00 3.138157e-03 0
3.551572e+00 3.190858e-03 0
3.550600e+00 3.239812e-03 0
3.549617e+00 3.285218e-03 0
3.548622e+00 3.327274e-03 0
3.547617e+00 3.366167e-03 0
3.546603e+00 3.402055e-03 0
3.545579e+00 3.435074e-03 0
3.544547e+00 3.465352e-03 0
3.543508e+00 3.493026e-03 0
3.542462e+00 3.518241e-03 0
3.541409e+00 3.541141e-03 0
3.540350e+00 3.561852e-03 0
3.539285e+00 3.580482e-03 0
3.538215e+00 3.597127e-03 0
3.537141e+00 3.611881e-03 0
3.536063e+00 3.624846e-03 0
3.534981e+00 3.636122e-03 0
3.533895e+00 3.645805e-03 0
3.532807e+00 3.653978e-03 0
3.531715e+00 3.660712e-03 0
3.530622e+00 3.666071e-03 0
3.529526e+00 3.670124e-03 0
3.528429e+00 3.672940e-03 0
3.527330e+00 3.674588e-03 0
3.526230e+00 3.675128e-03 0
3.525129e+00 3.674615e-03 0
3.524027e+00 3.673095e-03 0
3.522925e+00 3.670612e-03 0
3.521822e+00 3.667207e-03 0
3.520720e+00 3.662926e-03 0
3.519617e+00 3.657810e-03 0
3.518515e+00 3.651899e-03 0
3.517414e+00 3.645226e-03 0
3.516313e+00 3.637822e-03 0
3.515214e+00 3.629711e-03 0
3.514115e+00 3.620920e-03 0
3.513017e+00 3.611473e-03 0
3.511921e+00 3.601394e-03 0
3.510827e+00 3.590705e-03 0
3.509734e+00 3.579428e-03 0
3.508643e+00 3.567577e-03 0
3.507553e+00 3.555167e-03 0
3.506466e+00 3.542208e-03 0
3.505382e+00 3.528711e-03 0
3.504299e+00 3.514688e-03 0
3.503219e+00 3.500149e-03 0
3.502142e+00 3.485101e-03 0
3.501067e+00 3.469551e-03 0
3.499996e+00 3.453502e-03 0
3.498927e+00 3.436957e-03 0
3.497861e+00 3.419919e-03 0
3.496799e+00 3.402388e-03 0
3.495740e+00 3.384365e-03 0
3.494685e+00 3.365851e-03 0
3.493633e+00 3.346844e-03 0
3.492585e+00 3.327341e-03 0
3.491541e+00 3.307338e-03 0
3.490500e+00 3.286831e-03 0
3.489464e+00 3.265813e-03 0
3.488433e+00 3.244275e-03 0
3.487405e+00 3.222206e-03 0
3.486382e+00 3.199591e-03 0
3.485364e+00 3.176405e-03 0
3.484351e+00 3.152618e-03 0
3.483343e+00 3.128184e-03 0
3.482339e+00 3.103036e-03 0
3.481341e+00 3.077079e-03 0
3.480349e+00 3.050175e-03 0
3.479362e+00 3.022118e-03 0
3.478381e+00 2.992604e-03 0
3.477405e+00 2.961181e-03 0
3.476436e+00 2.927165e-03 0
3.475474e+00 2.889517e-03 0
3.474518e+00 2.846664e-03 0
3.473567e+00 2.796302e-03 0
3.472621e+00 2.735484e-03 0
3.471676e+00 2.661267e-03 0
3.470720e+00 2.591716e-03 0
3.470720e+00 2.562963e-03 0
4.066447e+00 -1.241566e-04 0
4.066447e+00 -1.160284e-04 0
4.066482e+00 -8.458495e-05 0
4.066512e+00 -2.197895e-05 0
4.066532e+00 7.363121e-05 0
4.066540e+00 2.048170e-04 0
4.066531e+00 3.750314e-04 0
4.066499e+00 5.885747e-04 0
4.066439e+00 8.505897e-04 0
4.066345e+00 1.167034e-03 0
4.066209e+00 1.544675e-03 0
4.066021e+00 1.991101e-03 0
4.065773e+00 2.514732e-03 0
4.065453e+00 3.124907e-03 0
4.065048e+00 3.832015e-03 0
4.064546e+00 4.647690e-03 0
4.063932e+00 5.585136e-03 0
4.063188e+00 6.659522e-03 0
4.062298e+00 7.888521e-03 0
4.061242e+00 9.293086e-03 0
4.059999e+00 1.089841e-02 0
4.058545e+00 1.273521e-02 0
4.056853e+00 1.484133e-02 0
4.054893e+00 1.726389e-02 0
4.052625e+00 2.006203e-02 0
4.050001e+00 2.331040e-02 0
4.046945e+00 2.710322e-02 0
4.043338e+00 3.155739e-02 0
4.038967e+00 3.680634e-02 0
4.033415e+00 4.295332e-02 0
4.025846e+00 4.987396e-02 0
4.014642e+00 5.655377e-02 0
3.997297e+00 5.934498e-02 0
3.977017e+00 5.319392e-02 0
3.967307e+00 4.105208e-02 0
3.963703e+00 2.977967e-02 0
3.962719e+00 2.108994e-02 0
3.962710e+00 1.475605e-02 0
3.963009e+00 1.019808e-02 0
3.963367e+00 6.915352e-03 0
3.963700e+00 4.543421e-03 0
3.963982e+00 2.827382e-03 0
3.964208e+00 1.589899e-03 0
3.964375e+00 7.072417e-04 0
3.964485e+00 9.127283e-05 0
3.964536e+00 -3.224119e-04 0
3.964528e+00 -5.792823e-04 0
3.964468e+00 -7.115110e-04 0
3.964360e+00 -7.442544e-04 0
3.964212e+00 -6.978491e-04 0
3.964028e+00 -5.890528e-04 0
3.963815e+00 -4.317822e-04 0
3.963576e+00 -2.377691e-04 0
3.963314e+00 -2.089874e-05 0
3.963034e+00 2.090498e-04 0
3.962732e+00 4.481834e-04 0
3.962404e+00 6.909949e-04 0
3.962052e+00 9.318577e-04 0
3.961675e+00 1.166387e-03 0
3.961270e+00 1.391980e-03 0
3.960838e+00 1.607322e-03 0
3.960378e+00 1.811999e-03 0
3.959891e+00 2.006159e-03 0
3.959377e+00 2.190182e-03 0
3.958836e+00 2.364501e-03 0
3.958271e+00 2.529523e-03 0
3.957683e+00 2.685620e-03 0
3.957071e+00 2.833150e-03 0
3.956439e+00 2.972464e-03 0
3.955786e+00 3.103913e-03 0
3.955114e+00 3.227836e-03 0
3.954425e+00 3.344548e-03 0