<?xml version="1.0"?>
<VTKFile type="StructuredGrid">
<StructuredGrid WholeExtent="0 158 0 30 0 0 ">
<Piece Extent="0 158 0 30 0 0 ">
<Points>
<DataArray type="Float64" format="ascii" NumberOfComponents="3">
0.000000e+00 0.000000e+00 0.000000e+00
3.164557e-02 0.000000e+00 0.000000e+00
6.329114e-02 0.000000e+00 0.000000e+00
9.493671e-02 0.000000e+00 0.000000e+00
1.265823e-01 0.000000e+00 0.000000e+00
1.582278e-01 0.000000e+00 0.000000e+00
1.898734e-01 0.000000e+00 0.000000e+00
2.215190e-01 0.000000e+00 0.000000e+00
2.531646e-01 0.000000e+00 0.000000e+00
2.848101e-01 0.000000e+00 0.000000e+00
3.164557e-01 0.000000e+00 0.000000e+00
3.481013e-01 0.000000e+00 0.000000e+00
3.797468e-01 0.000000e+00 0.000000e+00
4.113924e-01 0.000000e+00 0.000000e+00
4.430380e-01 0.000000e+00 0.000000e+00
4.746835e-01 0.000000e+00 0.000000e+00
5.063291e-01 0.000000e+00 0.000000e+00
5.379747e-01 0.000000e+00 0.000000e+00
5.696203e-01 0.000000e+00 0.000000e+00
6.012658e-01 0.000000e+00 0.000000e+00
6.329114e-01 0.000000e+00 0.000000e+00
6.645570e-01 0.000000e+00 0.000000e+00
6.962025e-01 0.000000e+00 0.000000e+00
7.278481e-01 0.000000e+00 0.000000e+00
7.594937e-01 0.000000e+00 0.000000e+00
7.911392e-01 0.000000e+00 0.000000e+00
8.227848e-01 0.000000e+00 0.000000e+00
8.544304e-01 0.000000e+00 0.000000e+00
8.860759e-01 0.000000e+00 0.000000e+00
9.177215e-01 0.000000e+00 0.000000e+00
9.493671e-01 0.000000e+00 0.000000e+00
9.810127e-01 0.000000e+00 0.000000e+00
1.012658e+00 0.000000e+00 0.000000e+00
1.044304e+00 0.000000e+00 0.000000e+00
1.075949e+00 0.000000e+00 0.000000e+00
1.107595e+00 0.000000e+00 0.000000e+00
1.139241e+00 0.000000e+00 0.000000e+00
1.170886e+00 0.000000e+00 0.000000e+00
1.202532e+00 0.000000e+00 0.000000e+00
1.234177e+00 0.000000e+00 0.000000e+00
1.265823e+00 0.000000e+00 0.000000e+00
1.297468e+00 0.000000e+00 0.000000e+00
1.329114e+00 0.000000e+00 0.000000e+00
1.360759e+00 0.000000e+00 0.000000e+00
1.392405e+00 0.000000e+00 0.000000e+00
1.424051e+00 0.000000e+00 0.000000e+00
1.455696e+00 0.000000e+00 0.000000e+00
1.487342e+00 0.000000e+00 0.000000e+00
1.518987e+00 0.000000e+00 0.000000e+00
1.550633e+00 0.000000e+00 0.000000e+00
1.582278e+00 0.000000e+00 0.000000e+00
1.613924e+00 0.000000e+00 0.000000e+00
1.645570e+00 0.000000e+00 0.000000e+00
1.677215e+00 0.000000e+00 0.000000e+00
1.708861e+00 0.000000e+00 0.000000e+00
1.740506e+00 0.000000e+00 0.000000e+00
1.772152e+00 0.000000e+00 0.000000e+00
1.803797e+00 0.000000e+00 0.000000e+00
1.835443e+00 0.000000e+00 0.000000e+00
1.867089e+00 0.000000e+00 0.000000e+00
1.898734e+00 0.000000e+00 0.000000e+00
1.930380e+00 0.000000e+00 0.000000e+00
1.962025e+00 0.000000e+00 0.000000e+00
1.993671e+00 0.000000e+00 0.000000e+00
2.025316e+00 0.000000e+00 0.000000e+00
2.056962e+00 0.000000e+00 0.000000e+00
2.088608e+00 0.000000e+00 0.000000e+00
2.120253e+00 0.000000e+00 0.000000e+00
2.151899e+00 0.000000e+00 0.000000e+00
2.183544e+00 0.000000e+00 0.000000e+00
2.215190e+00 0.000000e+00 0.000000e+00
2.246835e+00 0.000000e+00 0.000000e+00
2.278481e+00 0.000000e+00 0.000000e+00
2.310127e+00 0.000000e+00 0.000000e+00
2.341772e+00 0.000000e+00 0.000000e+00
2.373418e+00 0.000000e+00 0.000000e+00
2.405063e+00 0.000000e+00 0.000000e+00
2.436709e+00 0.000000e+00 0.000000e+00
2.468354e+00 0.000000e+00 0.000000e+00
2.500000e+00 0.000000e+00 0.000000e+00
2.531646e+00 0.000000e+00 0.000000e+00
2.563291e+00 0.000000e+00 0.000000e+00
2.594937e+00 0.000000e+00 0.000000e+00
2.626582e+00 0.000000e+00 0.000000e+00
2.658228e+00 0.000000e+00 0.000000e+00
2.689873e+00 0.000000e+00 0.000000e+00
2.721519e+00 0.000000e+00 0.000000e+00
2.753165e+00 0.000000e+00 0.000000e+00
2.784810e+00 0.000000e+00 0.000000e+00
2.816456e+00 0.000000e+00 0.000000e+00
2.848101e+00 0.000000e+00 0.000000e+00
2.879747e+00 0.000000e+00 0.000000e+00
2.911392e+00 0.000000e+00 0.000000e+00
2.943038e+00 0.000000e+00 0.000000e+00
2.974684e+00 0.000000e+00 0.000000e+00
3.006329e+00 0.000000e+00 0.000000e+00
3.037975e+00 0.000000e+00 0.000000e+00
3.069620e+00 0.000000e+00 0.000000e+00
3.101266e+00 0.000000e+00 0.000000e+00
3.132911e+00 0.000000e+00 0.000000e+00
3.164557e+00 0.000000e+00 0.000000e+00
3.196203e+00 0.000000e+00 0.000000e+00
3.227848e+00 0.000000e+00 0.000000e+00
3.259494e+00 0.000000e+00 0.000000e+00
3.291139e+00 0.000000e+00 0.000000e+00
3.322785e+00 0.000000e+00 0.000000e+00
3.354430e+00 0.000000e+00 0.000000e+00
3.386076e+00 0.000000e+00 0.000000e+00
3.417722e+00 0.000000e+00 0.000000e+00
3.449367e+00 0.000000e+00 0.000000e+00
3.481013e+00 0.000000e+00 0.000000e+00
3.512658e+00 0.000000e+00 0.000000e+00
3.544304e+00 0.000000e+00 0.000000e+00
3.575949e+00 0.000000e+00 0.000000e+00
3.607595e+00 0.000000e+00 0.000000e+00
3.639241e+00 0.000000e+00 0.000000e+00
3.670886e+00 0.000000e+00 0.000000e+00
3.702532e+00 0.000000e+00 0.000000e+00
3.734177e+00 0.000000e+00 0.000000e+00
3.765823e+00 0.000000e+00 0.000000e+00
3.797468e+00 0.000000e+00 0.000000e+00
3.829114e+00 0.000000e+00 0.000000e+00
3.860759e+00 0.000000e+00 0.000000e+00
3.892405e+00 0.000000e+00 0.000000e+00
3.924051e+00 0.000000e+00 0.000000e+00
3.955696e+00 0.000000e+00 0.000000e+00
3.987342e+00 0.000000e+00 0.000000e+00
4.018987e+00 0.000000e+00 0.000000e+00
4.050633e+00 0.000000e+00 0.000000e+00
4.082278e+00 0.000000e+00 0.000000e+00
4.113924e+00 0.000000e+00 0.000000e+00
4.145570e+00 0.000000e+00 0.000000e+00
4.177215e+00 0.000000e+00 0.000000e+00
4.208861e+00 0.000000e+00 0.000000e+00
4.240506e+00 0.000000e+00 0.000000e+00
4.272152e+00 0.000000e+00 0.000000e+00
4.303797e+00 0.000000e+00 0.000000e+00
4.335443e+00 0.000000e+00 0.000000e+00
4.367089e+00 0.000000e+00 0.000000e+00
4.398734e+00 0.000000e+00 0.000000e+00
4.430380e+00 0.000000e+00 0.000000e+00
4.462025e+00 0.000000e+00 0.000000e+00
4.493671e+00 0.000000e+00 0.000000e+00
4.525316e+00 0.000000e+00 0.000000e+00
4.556962e+00 0.000000e+00 0.000000e+00
4.588608e+00 0.000000e+00 0.000000e+00
4.620253e+00 0.000000e+00 0.000000e+00
4.651899e+00 0.000000e+00 0.000000e+00
4.683544e+00 0.000000e+00 0.000000e+00
4.715190e+00 0.000000e+00 0.000000e+00
4.746835e+00 0.000000e+00 0.000000e+00
4.778481e+00 0.000000e+00 0.000000e+00
4.810127e+00 0.000000e+00 0.000000e+00
4.841772e+00 0.000000e+00 0.000000e+00
4.873418e+00 0.000000e+00 0.000000e+00
4.905063e+00 0.000000e+00 0.000000e+00
4.936709e+00 0.000000e+00 0.000000e+00
4.968354e+00 0.000000e+00 0.000000e+00
5.000000e+00 0.000000e+00 0.000000e+00
0.000000e+00 3.333333e-02 0.000000e+00
3.164557e-02 3.333333e-02 0.000000e+00
6.329114e-02 3.333333e-02 0.000000e+00
9.493671e-02 3.333333e-02 0.000000e+00
1.265823e-01 3.333333e-02 0.000000e+00
1.582278e-01 3.333333e-02 0.000000e+00
1.898734e-01 3.333333e-02 0.000000e+00
2.215190e-01 3.333333e-02 0.000000e+00
2.531646e-01 3.333333e-02 0.000000e+00
2.848101e-01 3.333333e-02 0.000000e+00
3.164557e-01 3.333333e-02 0.000000e+00
3.481013e-01 3.333333e-02 0.000000e+00
3.797468e-01 3.333333e-02 0.000000e+00
4.113924e-01 3.333333e-02 0.000000e+00
4.430380e-01 3.333333e-02 0.000000e+00
4.746835e-01 3.333333e-02 0.000000e+00
5.063291e-01 3.333333e-02 0.000000e+00
5.379747e-01 3.333333e-02 0.000000e+00
5.696203e-01 3.333333e-02 0.000000e+00
6.012658e-01 3.333333e-02 0.000000e+00
6.329114e-01 3.333333e-02 0.000000e+00
6.645570e-01 3.333333e-02 0.000000e+00
6.962025e-01 3.333333e-02 0.000000e+00
7.278481e-01 3.333333e-02 0.000000e+00
7.594937e-01 3.333333e-02 0.000000e+00
7.911392e-01 3.333333e-02 0.000000e+00
8.227848e-01 3.333333e-02 0.000000e+00
8.544304e-01 3.333333e-02 0.000000e+00
8.860759e-01 3.333333e-02 0.000000e+00
9.177215e-01 3.333333e-02 0.000000e+00
9.493671e-01 3.333333e-02 0.000000e+00
9.810127e-01 3.333333e-02 0.000000e+00
1.012658e+00 3.333333e-02 0.000000e+00
1.044304e+00 3.333333e-02 0.000000e+00
1.075949e+00 3.333333e-02 0.000000e+00
1.107595e+00 3.333333e-02 0.000000e+00
1.139241e+00 3.333333e-02 0.000000e+00
1.170886e+00 3.333333e-02 0.000000e+00
1.202532e+00 3.333333e-02 0.000000e+00
1.234177e+00 3.333333e-02 0.000000e+00
1.265823e+00 3.333333e-02 0.000000e+00
1.297468e+00 3.333333e-02 0.000000e+00
1.329114e+00 3.333333e-02 0.000000e+00
1.360759e+00 3.333333e-02 0.000000e+00
1.392405e+00 3.333333e-02 0.000000e+00
1.424051e+00 3.333333e-02 0.000000e+00
1.455696e+00 3.333333e-02 0.000000e+00
1.487342e+00 3.333333e-02 0.000000e+00
1.518987e+00 3.333333e-02 0.000000e+00
1.550633e+00 3.333333e-02 0.000000e+00
1.582278e+00 3.333333e-02 0.000000e+00
1.613924e+00 3.333333e-02 0.000000e+00
1.645570e+00 3.333333e-02 0.000000e+00
1.677215e+00 3.333333e-02 0.000000e+00
1.708861e+00 3.333333e-02 0.000000e+00
1.740506e+00 3.333333e-02 0.000000e+00
1.772152e+00 3.333333e-02 0.000000e+00
1.803797e+00 3.333333e-02 0.000000e+00
1.835443e+00 3.333333e-02 0.000000e+00
1.867089e+00 3.333333e-02 0.000000e+00
1.898734e+00 3.333333e-02 0.000000e+00
1.930380e+00 3.333333e-02 0.000000e+00
1.962025e+00 3.333333e-02 0.000000e+00
1.993671e+00 3.333333e-02 0.000000e+00
2.025316e+00 3.333333e-02 0.000000e+00
2.056962e+00 3.333333e-02 0.000000e+00
2.088608e+00 3.333333e-02 0.000000e+00
2.120253e+00 3.333333e-02 0.000000e+00
2.151899e+00 3.333333e-02 0.000000e+00
2.183544e+00 3.333333e-02 0.000000e+00
2.215190e+00 3.333333e-02 0.000000e+00
2.246835e+00 3.333333e-02 0.000000e+00
2.278481e+00 3.333333e-02 0.000000e+00
2.310127e+00 3.333333e-02 0.000000e+00
2.341772e+00 3.333333e-02 0.000000e+00
2.373418e+00 3.333333e-02 0.000000e+00
2.405063e+00 3.333333e-02 0.000000e+00
2.436709e+00 3.333333e-02 0.000000e+00
2.468354e+00 3.333333e-02 0.000000e+00
2.500000e+00 3.333333e-02 0.000000e+00
2.531646e+00 3.333333e-02 0.000000e+00
2.563291e+00 3.333333e-02 0.000000e+00
2.594937e+00 3.333333e-02 0.000000e+00
2.626582e+00 3.333333e-02 0.000000e+00
2.658228e+00 3.333333e-02 0.000000e+00
2.689873e+00 3.333333e-02 0.000000e+00
2.721519e+00 3.333333e-02 0.000000e+00
2.753165e+00 3.333333e-02 0.000000e+00
2.784810e+00 3.333333e-02 0.000000e+00
2.816456e+00 3.333333e-02 0.000000e+00
2.848101e+00 3.333333e-02 0.000000e+00
2.879747e+00 3.333333e-02 0.000000e+00
[...]
<PointData>
<DataArray Name="Velocity" type="Float64" format="ascii" NumberOfComponents="3">
0.000000e+00 0.000000e+00 0
0.000000e+00 0.000000e+00 0
0.000000e+00 0.000000e+00 0
0.000000e+00 0.000000e+00 0
0.000000e+00 0.000000e+00 0
0.000000e+00 0.000000e+00 0
0.000000e+00 0.000000e+00 0
0.000000e+00 0.000000e+00 0
0.000000e+00 0.000000e+00 0
0.000000e+00 0.000000e+00 0
0.000000e+00 0.000000e+00 0
0.000000e+00 0.000000e+00 0
0.000000e+00 0.000000e+00 0
0.000000e+00 0.000000e+00 0
0.000000e+00 0.000000e+00 0
0.000000e+00 0.000000e+00 0
0.000000e+00 0.000000e+00 0
0.000000e+00 0.000000e+00 0
0.000000e+00 0.000000e+00 0
3.959399e-18 0.000000e+00 0
0.000000e+00 0.000000e+00 0
0.000000e+00 0.000000e+00 0
0.000000e+00 0.000000e+00 0
-1.226420e-17 0.000000e+00 0
0.000000e+00 0.000000e+00 0
0.000000e+00 0.000000e+00 0
0.000000e+00 0.000000e+00 0
-9.896037e-18 0.000000e+00 0
0.000000e+00 0.000000e+00 0
0.000000e+00 0.000000e+00 0
0.000000e+00 0.000000e+00 0
4.323036e-18 0.000000e+00 0
0.000000e+00 0.000000e+00 0
0.000000e+00 0.000000e+00 0
0.000000e+00 0.000000e+00 0
0.000000e+00 0.000000e+00 0
0.000000e+00 0.000000e+00 0
0.000000e+00 0.000000e+00 0
-2.537315e-19 0.000000e+00 0
0.000000e+00 0.000000e+00 0
0.000000e+00 0.000000e+00 0
0.000000e+00 0.000000e+00 0
0.000000e+00 0.000000e+00 0
0.000000e+00 0.000000e+00 0
0.000000e+00 0.000000e+00 0
0.000000e+00 0.000000e+00 0
-3.379720e-18 0.000000e+00 0
0.000000e+00 0.000000e+00 0
0.000000e+00 0.000000e+00 0
0.000000e+00 0.000000e+00 0
0.000000e+00 0.000000e+00 0
0.000000e+00 0.000000e+00 0
0.000000e+00 0.000000e+00 0
0.000000e+00 0.000000e+00 0
-6.281872e-18 0.000000e+00 0
0.000000e+00 0.000000e+00 0
0.000000e+00 0.000000e+00 0
0.000000e+00 0.000000e+00 0
0.000000e+00 0.000000e+00 0
0.000000e+00 0.000000e+00 0
0.000000e+00 0.000000e+00 0
0.000000e+00 0.000000e+00 0
-4.580269e-18 0.000000e+00 0
0.000000e+00 0.000000e+00 0
0.000000e+00 0.000000e+00 0
0.000000e+00 0.000000e+00 0
0.000000e+00 0.000000e+00 0
0.000000e+00 0.000000e+00 0
0.000000e+00 0.000000e+00 0
0.000000e+00 0.000000e+00 0
0.000000e+00 0.000000e+00 0
0.000000e+00 0.000000e+00 0
0.000000e+00 0.000000e+00 0
0.000000e+00 0.000000e+00 0
0.000000e+00 0.000000e+00 0
0.000000e+00 0.000000e+00 0
0.000000e+00 0.000000e+00 0
0.000000e+00 0.000000e+00 0
0.000000e+00 0.000000e+00 0
0.000000e+00 0.000000e+00 0
0.000000e+00 0.000000e+00 0
0.000000e+00 0.000000e+00 0
0.000000e+00 0.000000e+00 0
0.000000e+00 0.000000e+00 0
0.000000e+00 0.000000e+00 0
0.000000e+00 0.000000e+00 0
0.000000e+00 0.000000e+00 0
0.000000e+00 0.000000e+00 0
0.000000e+00 0.000000e+00 0
0.000000e+00 0.000000e+00 0
0.000000e+00 0.000000e+00 0
0.000000e+00 0.000000e+00 0
0.000000e+00 0.000000e+00 0
0.000000e+00 0.000000e+00 0
0.000000e+00 0.000000e+00 0
0.000000e+00 0.000000e+00 0
0.000000e+00 0.000000e+00 0
0.000000e+00 0.000000e+00 0
0.000000e+00 0.000000e+00 0
0.000000e+00 0.000000e+00 0
0.000000e+00 0.000000e+00 0
0.000000e+00 0.000000e+00 0
0.000000e+00 0.000000e+00 0
0.000000e+00 0.000000e+00 0
0.000000e+00 0.000000e+00 0
0.000000e+00 0.000000e+00 0
0.000000e+00 0.000000e+00 0
0.000000e+00 0.000000e+00 0
0.000000e+00 0.000000e+00 0
0.000000e+00 0.000000e+00 0
0.000000e+00 0.000000e+00 0
0.000000e+00 0.000000e+00 0
0.000000e+00 0.000000e+00 0
0.000000e+00 0.000000e+00 0
0.000000e+00 0.000000e+00 0
0.000000e+00 0.000000e+00 0
0.000000e+00 0.000000e+00 0
0.000000e+00 0.000000e+00 0
0.000000e+00 0.000000e+00 0
0.000000e+00 0.000000e+00 0
0.000000e+00 0.000000e+00 0
0.000000e+00 0.000000e+00 0
0.000000e+00 0.000000e+00 0
0.000000e+00 0.000000e+00 0
0.000000e+00 0.000000e+00 0
0.000000e+00 0.000000e+00 0
0.000000e+00 0.000000e+00 0
0.000000e+00 0.000000e+00 0
0.000000e+00 0.000000e+00 0
0.000000e+00 0.000000e+00 0
0.000000e+00 0.000000e+00 0
0.000000e+00 0.000000e+00 0
0.000000e+00 0.000000e+00 0
0.000000e+00 0.000000e+00 0
0.000000e+00 0.000000e+00 0
0.000000e+00 0.000000e+00 0
0.000000e+00 0.000000e+00 0
0.000000e+00 0.000000e+00 0
0.000000e+00 0.000000e+00 0
0.000000e+00 0.000000e+00 0
0.000000e+00 0.000000e+00 0
0.000000e+00 0.000000e+00 0
0.000000e+00 0.000000e+00 0
0.000000e+00 0.000000e+00 0
0.000000e+00 0.000000e+00 0
0.000000e+00 0.000000e+00 0
0.000000e+00 0.000000e+00 0
0.000000e+00 0.000000e+00 0
0.000000e+00 0.000000e+00 0
0.000000e+00 0.000000e+00 0
0.000000e+00 0.000000e+00 0
0.000000e+00 0.000000e+00 0
0.000000e+00 0.000000e+00 0
0.000000e+00 0.000000e+00 0
0.000000e+00 0.000000e+00 0
0.000000e+00 0.000000e+00 0
0.000000e+00 0.000000e+00 0
0.000000e+00 0.000000e+00 0
0.000000e+00 0.000000e+00 0
6.911667e-01 -1.074108e-04 0
6.911667e-01 -1.086767e-04 0
6.912588e-01 -8.764148e-05 0
6.913137e-01 -2.936790e-05 0
6.913056e-01 5.452447e-05 0
6.912076e-01 1.654128e-04 0
6.909901e-01 3.086715e-04 0
6.906199e-01 4.889552e-04 0
6.900593e-01 7.113990e-04 0
6.892655e-01 9.819862e-04 0
6.881895e-01 1.307724e-03 0
6.867748e-01 1.696793e-03 0
6.849566e-01 2.158721e-03 0
6.826601e-01 2.704607e-03 0
6.797990e-01 3.347419e-03 0
6.762736e-01 4.102370e-03 0
6.719682e-01 4.987409e-03 0
6.667484e-01 6.023816e-03 0
6.604574e-01 7.236936e-03 0
6.529118e-01 8.657009e-03 0
6.438958e-01 1.032007e-02 0
6.331554e-01 1.226878e-02 0
6.203910e-01 1.455290e-02 0
6.052494e-01 1.722879e-02 0
5.873166e-01 2.035686e-02 0
5.661136e-01 2.399461e-02 0
5.410994e-01 2.818130e-02 0
5.116934e-01 3.290741e-02 0
4.773338e-01 3.805858e-02 0
4.376088e-01 4.332324e-02 0
3.925118e-01 4.806503e-02 0
3.428755e-01 5.121095e-02 0
2.909577e-01 5.132460e-02 0
2.408130e-01 4.722458e-02 0
1.973884e-01 3.940628e-02 0
1.636651e-01 2.888901e-02 0
1.410858e-01 1.102872e-02 0
1.292645e-01 -1.163422e-02 0
1.253861e-01 -2.431202e-02 0
1.268542e-01 -2.345733e-02 0
1.311320e-01 -1.731200e-02 0
1.366233e-01 -1.174897e-02 0
1.427180e-01 -8.566290e-03 0
1.492828e-01 -7.625196e-03 0
1.563208e-01 -8.023705e-03 0
1.637937e-01 -8.837163e-03 0
1.715747e-01 -9.480973e-03 0
1.794758e-01 -9.723757e-03 0
1.872915e-01 -9.550070e-03 0
1.948330e-01 -9.033938e-03 0
2.019439e-01 -8.269087e-03 0
2.085046e-01 -7.341670e-03 0
2.144295e-01 -6.323336e-03 0
2.196627e-01 -5.271303e-03 0
2.241722e-01 -4.229890e-03 0
2.279455e-01 -3.231746e-03 0
2.309857e-01 -2.298014e-03 0
2.333069e-01 -1.435674e-03 0
2.349311e-01 -6.220772e-04 0
2.358923e-01 2.565328e-04 0
2.362771e-01 1.288191e-03 0
2.361864e-01 2.383040e-03 0
2.355926e-01 3.436257e-03 0
2.344400e-01 4.422745e-03 0
2.326986e-01 5.320852e-03 0
2.303585e-01 6.084839e-03 0
2.274386e-01 6.649186e-03 0
2.239958e-01 6.947391e-03 0
2.201434e-01 6.906709e-03 0
2.160978e-01 6.411794e-03 0
2.122583e-01 5.286925e-03 0
2.093223e-01 3.386387e-03 0
2.082760e-01 8.136378e-04 0
2.095926e-01 -1.880529e-03 0
2.131272e-01 -4.262143e-03 0
2.186462e-01 -6.373720e-03 0
2.259894e-01 -8.344413e-03 0
2.350828e-01 -1.025708e-02 0
2.459000e-01 -1.214068e-02 0
2.584179e-01 -1.398197e-02 0
2.725849e-01 -1.574143e-02 0
2.883045e-01 -1.736847e-02 0
3.054326e-01 -1.881331e-02 0
3.237830e-01 -2.003498e-02 0
3.431384e-01 -2.100537e-02 0
3.632639e-01 -2.171048e-02 0
3.839191e-01 -2.214946e-02 0
4.048691e-01 -2.233258e-02 0
4.258938e-01 -2.227851e-02 0
4.467928e-01 -2.201167e-02 0
4.673902e-01 -2.155974e-02 0
4.875357e-01 -2.095161e-02 0
5.071048e-01 -2.021583e-02 0
5.259979e-01 -1.937947e-02 0
5.441382e-01 -1.846736e-02 0
5.614700e-01 -1.750171e-02 0
5.779554e-01 -1.650195e-02 0
5.935725e-01 -1.548475e-02 0
6.083125e-01 -1.446413e-02 0
6.221778e-01 -1.345175e-02 0
6.351796e-01 -1.245708e-02 0
6.473365e-01 -1.148773e-02 0
6.586727e-01 -1.054964e-02 0
6.692168e-01 -9.647364e-03 0
6.790007e-01 -8.784242e-03 0
6.880582e-01 -7.962561e-03 0
6.964249e-01 -7.183699e-03 0
7.041369e-01 -6.448223e-03 0
7.112306e-01 -5.755961e-03 0
7.177416e-01 -5.106057e-03 0
7.237047e-01 -4.497013e-03 0
7.291535e-01 -3.926721e-03 0
7.341193e-01 -3.392517e-03 0
7.386317e-01 -2.891248e-03 0
7.427176e-01 -2.419412e-03 0
7.464010e-01 -1.973392e-03 0
7.497035e-01 -1.549906e-03 0
7.526438e-01 -1.146852e-03 0
7.552383e-01 -7.650296e-04 0
7.575013e-01 -4.125110e-04 0
7.594449e-01 -1.106651e-04 0
7.610738e-01 1.421171e-04 0
7.623895e-01 3.767874e-04 0
7.633898e-01 6.128842e-04 0
7.640678e-01 8.601090e-04 0
7.644158e-01 1.134777e-03 0
7.644367e-01 1.449424e-03 0
7.641187e-01 1.802754e-03 0
7.634279e-01 2.190940e-03 0
7.623342e-01 2.612571e-03 0
7.608063e-01 3.068771e-03 0
7.588107e-01 3.561911e-03 0
7.563106e-01 4.094715e-03 0
7.532665e-01 4.669811e-03 0
7.496363e-01 5.289532e-03 0
7.453757e-01 5.955832e-03 0
7.404385e-01 6.670210e-03 0
7.347769e-01 7.433646e-03 0
7.283423e-01 8.246508e-03 0
7.210856e-01 9.108440e-03 0
7.129578e-01 1.001820e-02 0
7.039114e-01 1.097348e-02 0
6.939008e-01 1.197062e-02 0
6.828837e-01 1.300430e-02 0
6.708234e-01 1.406716e-02 0
6.576902e-01 1.514916e-02 0
6.434643e-01 1.623681e-02 0
6.281392e-01 1.731247e-02 0
6.117247e-01 1.835553e-02 0
5.942501e-01 1.934817e-02 0
5.757680e-01 2.028351e-02 0
5.563639e-01 2.115636e-02 0
5.361860e-01 2.190024e-02 0
5.155072e-01 2.226263e-02 0
4.948067e-01 2.171060e-02 0
4.748032e-01 1.956014e-02 0
4.563373e-01 1.505198e-02 0
4.400459e-01 1.332014e-02 0
4.400459e-01 1.453599e-02 0
9.484070e-01 -2.149994e-04 0
9.484070e-01 -2.044345e-04 0
9.484946e-01 -1.547555e-04 0
9.485541e-01 -4.935889e-05 0
9.485641e-01 1.116792e-04 0
9.484992e-01 3.323545e-04 0
9.483332e-01 6.191398e-04 0
9.480377e-01 9.804650e-04 0
9.475800e-01 1.426538e-03 0
9.469232e-01 1.969480e-03 0
9.460247e-01 2.623532e-03 0
9.448354e-01 3.405319e-03 0
9.432990e-01 4.334192e-03 0
9.413502e-01 5.432693e-03 0
9.389136e-01 6.727151e-03 0
9.359022e-01 8.248480e-03 0
9.322149e-01 1.003318e-02 0
9.277340e-01 1.212461e-02 0
9.223223e-01 1.457453e-02 0
9.158183e-01 1.744492e-02 0
9.080319e-01 2.081002e-02 0
8.987370e-01 2.475837e-02 0
8.876644e-01 2.939437e-02 0
8.744913e-01 3.483836e-02 0
8.588298e-01 4.122305e-02 0
8.402136e-01 4.868209e-02 0
8.180849e-01 5.732258e-02 0
7.917869e-01 6.716652e-02 0
7.605764e-01 7.803577e-02 0
7.236929e-01 8.934575e-02 0
6.805713e-01 9.978566e-02 0
6.313704e-01 1.069703e-01 0
5.780500e-01 1.075058e-01 0
5.258064e-01 9.855962e-02 0
4.823747e-01 8.126246e-02 0
4.502466e-01 5.930537e-02 0
4.278905e-01 3.623520e-02 0
4.071958e-01 1.653695e-02 0
3.860840e-01 2.538753e-03 0
3.695770e-01 -6.052441e-03 0
3.599281e-01 -1.029024e-02 0
3.560750e-01 -1.220407e-02 0
3.560203e-01 -1.333470e-02 0
3.579743e-01 -1.432836e-02 0
3.607292e-01 -1.528499e-02 0
3.636704e-01 -1.606761e-02 0
3.665827e-01 -1.651856e-02 0
3.694369e-01 -1.655516e-02 0
3.722551e-01 -1.617650e-02 0
3.750551e-01 -1.543403e-02 0
3.778386e-01 -1.440085e-02 0
3.805931e-01 -1.315166e-02 0
3.832978e-01 -1.175341e-02 0
3.859274e-01 -1.026244e-02 0
3.884544e-01 -8.724773e-03 0
3.908511e-01 -7.177140e-03 0
3.930904e-01 -5.647541e-03 0
3.951470e-01 -4.156017e-03 0
3.970008e-01 -2.723466e-03 0
3.986530e-01 -1.418014e-03 0
4.001911e-01 -3.099694e-04 0
4.017018e-01 7.208474e-04 0
4.032428e-01 1.839266e-03 0
4.048522e-01 3.048022e-03 0
4.065124e-01 4.298907e-03 0
4.081812e-01 5.540310e-03 0
4.097938e-01 6.701836e-03 0
4.112765e-01 7.684011e-03 0
4.125960e-01 8.318878e-03 0
4.138612e-01 8.305357e-03 0
4.154558e-01 7.136613e-03 0
4.179376e-01 4.194428e-03 0
4.214100e-01 -2.850092e-04 0
4.257542e-01 -5.110277e-03 0
4.311828e-01 -9.536782e-03 0
4.379029e-01 -1.354845e-02 0
4.460467e-01 -1.731352e-02 0
4.556889e-01 -2.097287e-02 0
4.668552e-01 -2.457995e-02 0
4.795223e-01 -2.810833e-02 0
4.936192e-01 -3.148089e-02 0
5.090294e-01 -3.460000e-02 0
5.255991e-01 -3.737101e-02 0
5.431458e-01 -3.971714e-02 0
5.614697e-01 -4.158693e-02 0
5.803638e-01 -4.295593e-02 0
5.996238e-01 -4.382453e-02 0
6.190553e-01 -4.421373e-02 0
6.384799e-01 -4.415997e-02 0
6.577384e-01 -4.370999e-02 0
6.766932e-01 -4.291623e-02 0
6.952284e-01 -4.183305e-02 0
7.132499e-01 -4.051382e-02 0
7.306834e-01 -3.900890e-02 0
7.474729e-01 -3.736434e-02 0
7.635788e-01 -3.562115e-02 0
7.789756e-01 -3.381504e-02 0
7.936498e-01 -3.197655e-02 0
8.075978e-01 -3.013129e-02 0
8.208247e-01 -2.830037e-02 0
8.333417e-01 -2.650091e-02 0
8.451656e-01 -2.474650e-02 0
8.563174e-01 -2.304770e-02 0
8.668207e-01 -2.141249e-02 0
8.767018e-01 -1.984661e-02 0
8.859880e-01 -1.835393e-02 0
8.947078e-01 -1.693668e-02 0
9.028899e-01 -1.559570e-02 0
9.105629e-01 -1.433059e-02 0
9.177551e-01 -1.313984e-02 0
9.244938e-01 -1.202093e-02 0
9.308056e-01 -1.097045e-02 0
9.367155e-01 -9.984174e-03 0
9.422473e-01 -9.057181e-03 0
9.474231e-01 -8.184017e-03 0
9.522631e-01 -7.358917e-03 0
9.567854e-01 -6.576132e-03 0
9.610057e-01 -5.830330e-03 0
9.649360e-01 -5.116928e-03 0
9.685830e-01 -4.431283e-03 0
9.719418e-01 -3.763344e-03 0
9.749879e-01 -3.102040e-03 0
9.777066e-01 -2.439848e-03 0
9.800915e-01 -1.768100e-03 0
9.821354e-01 -1.081081e-03 0
9.838303e-01 -3.889569e-04 0
9.851709e-01 3.126154e-04 0
9.861584e-01 1.062269e-03 0
9.867919e-01 1.879421e-03 0
9.870547e-01 2.761177e-03 0
9.869237e-01 3.711142e-03 0
9.863712e-01 4.735237e-03 0
9.853661e-01 5.839608e-03 0
9.838751e-01 7.029950e-03 0
9.818622e-01 8.311342e-03 0
9.792894e-01 9.688134e-03 0
9.761169e-01 1.116386e-02 0
9.723036e-01 1.274110e-02 0
9.678068e-01 1.442133e-02 0
9.625834e-01 1.620474e-02 0
9.565895e-01 1.808987e-02 0
9.497817e-01 2.007328e-02 0
9.421172e-01 2.214902e-02 0
9.335552e-01 2.430798e-02 0
9.240578e-01 2.653705e-02 0
9.135917e-01 2.881811e-02 0
9.021299e-01 3.112691e-02 0
8.896544e-01 3.343230e-02 0
8.761590e-01 3.569638e-02 0
8.616547e-01 3.787424e-02 0
8.461834e-01 3.990674e-02 0
8.298413e-01 4.169304e-02 0
8.128028e-01 4.303569e-02 0
7.953081e-01 4.358610e-02 0
7.775716e-01 4.287490e-02 0
7.596210e-01 4.052107e-02 0
7.411925e-01 3.661091e-02 0
7.214826e-01 3.297894e-02 0
7.214826e-01 3.163739e-02 0
1.045421e+00 -3.303238e-04 0
1.045421e+00 -3.124322e-04 0
1.045526e+00 -2.425979e-04 0
1.045611e+00 -1.025638e-04 0
1.045661e+00 1.123932e-04 0
1.045661e+00 4.086026e-04 0
1.045594e+00 7.948140e-04 0
1.045438e+00 1.282399e-03 0
1.045172e+00 1.885320e-03 0
1.044768e+00 2.620250e-03 0
1.044198e+00 3.506791e-03 0
1.043425e+00 4.567805e-03 0
1.042409e+00 5.829870e-03 0
1.041104e+00 7.323896e-03 0
1.039457e+00 9.085958e-03 0
1.037405e+00 1.115839e-02 0
1.034879e+00 1.359123e-02 0
1.031795e+00 1.644402e-02 0
1.028060e+00 1.978812e-02 0
1.023561e+00 2.370956e-02 0
1.018169e+00 2.831238e-02 0
1.011728e+00 3.372247e-02 0
1.004049e+00 4.009169e-02 0
9.949035e-01 4.760123e-02 0
9.840018e-01 5.646270e-02 0
9.709742e-01 6.691257e-02 0
9.553311e-01 7.919075e-02 0
9.364044e-01 9.348309e-02 0
9.132589e-01 1.097843e-01 0
8.845797e-01 1.275952e-01 0
8.486171e-01 1.453114e-01 0
8.035333e-01 1.592001e-01 0
7.492110e-01 1.625186e-01 0
6.925210e-01 1.480025e-01 0
6.518458e-01 1.189959e-01 0
6.261461e-01 8.627905e-02 0
6.093849e-01 5.637555e-02 0
5.968474e-01 3.240197e-02 0
5.870054e-01 1.531306e-02 0
5.789852e-01 4.093430e-03 0
5.727201e-01 -3.089972e-03 0
5.682257e-01 -7.632761e-03 0
5.651090e-01 -1.056689e-02 0
5.628694e-01 -1.258531e-02 0
5.610943e-01 -1.402366e-02 0
5.595349e-01 -1.500296e-02 0
5.580929e-01 -1.555512e-02 0
5.567662e-01 -1.569865e-02 0
5.555952e-01 -1.546799e-02 0
5.546280e-01 -1.491537e-02 0
5.539051e-01 -1.410252e-02 0
5.534543e-01 -1.309213e-02 0
5.532922e-01 -1.194216e-02 0
5.534268e-01 -1.070296e-02 0
5.538600e-01 -9.416320e-03 0
5.545894e-01 -8.115128e-03 0
5.556096e-01 -6.823134e-03 0
5.569135e-01 -5.554672e-03 0
5.584927e-01 -4.315062e-03 0
5.603310e-01 -3.103981e-03 0
5.623617e-01 -1.923398e-03 0
5.645043e-01 -8.315138e-04 0
5.668050e-01 1.177508e-04 0
5.693422e-01 9.786047e-04 0
5.721909e-01 1.814188e-03 0
5.754293e-01 2.628277e-03 0
5.791476e-01 3.388734e-03 0
5.834694e-01 3.995670e-03 0
5.885727e-01 4.184038e-03 0
5.946694e-01 3.399364e-03 0
6.018715e-01 9.929952e-04 0
6.099350e-01 -2.885495e-03 0
6.182592e-01 -7.419978e-03 0
6.266473e-01 -1.217471e-02 0
6.354470e-01 -1.705897e-02 0
6.450325e-01 -2.203050e-02 0
6.556483e-01 -2.707915e-02 0
6.673940e-01 -3.217546e-02 0
6.802558e-01 -3.724534e-02 0
6.941444e-01 -4.217351e-02 0
7.089247e-01 -4.682237e-02 0
7.244382e-01 -5.105416e-02 0
7.405169e-01 -5.474940e-02 0
7.569931e-01 -5.781879e-02 0
7.737062e-01 -6.020845e-02 0
7.905063e-01 -6.189961e-02 0
8.072578e-01 -6.290470e-02 0
8.238401e-01 -6.326119e-02 0
8.401493e-01 -6.302486e-02 0
8.560972e-01 -6.226315e-02 0
8.716117e-01 -6.104941e-02 0
8.866352e-01 -5.945822e-02 0
9.011237e-01 -5.756186e-02 0
9.150450e-01 -5.542783e-02 0
9.283780e-01 -5.311739e-02 0
9.411103e-01 -5.068474e-02 0
9.532374e-01 -4.817686e-02 0
9.647614e-01 -4.563367e-02 0
9.756894e-01 -4.308851e-02 0
9.860331e-01 -4.056874e-02 0
9.958072e-01 -3.809642e-02 0
1.005029e+00 -3.568897e-02 0
1.013719e+00 -3.335985e-02 0
1.021896e+00 -3.111912e-02 0
1.029584e+00 -2.897395e-02 0
1.036803e+00 -2.692909e-02 0
1.043578e+00 -2.498719e-02 0
1.049931e+00 -2.314910e-02 0
1.055883e+00 -2.141410e-02 0
1.061458e+00 -1.978008e-02 0
1.066676e+00 -1.824366e-02 0
1.071558e+00 -1.680036e-02 0
1.076124e+00 -1.544464e-02 0
1.080393e+00 -1.417009e-02 0
1.084382e+00 -1.296954e-02 0
1.088106e+00 -1.183522e-02 0
1.091579e+00 -1.075896e-02 0
1.094813e+00 -9.732321e-03 0
1.097817e+00 -8.746556e-03 0
1.100596e+00 -7.792080e-03 0
1.103151e+00 -6.857392e-03 0
1.105484e+00 -5.930261e-03 0
1.107594e+00 -4.999077e-03 0
1.109475e+00 -4.052250e-03 0
1.111121e+00 -3.078202e-03 0
1.112521e+00 -2.062766e-03 0
1.113643e+00 -1.002998e-03 0
1.114470e+00 9.519060e-05 0
1.115008e+00 1.246659e-03 0
1.115250e+00 2.473567e-03 0
1.115182e+00 3.788661e-03 0
1.114784e+00 5.202471e-03 0
1.114035e+00 6.723792e-03 0
1.112911e+00 8.360542e-03 0
1.111388e+00 1.011974e-02 0
1.109441e+00 1.200740e-02 0
1.107042e+00 1.402851e-02 0
1.104166e+00 1.618689e-02 0
1.100786e+00 1.848505e-02 0
1.096875e+00 2.092394e-02 0
1.092406e+00 2.350257e-02 0
1.087353e+00 2.621754e-02 0
1.081692e+00 2.906240e-02 0
1.075400e+00 3.202680e-02 0
1.068454e+00 3.509540e-02 0
1.060837e+00 3.824654e-02 0
1.052532e+00 4.145065e-02 0
1.043529e+00 4.466845e-02 0
1.033824e+00 4.784850e-02 0
1.023425e+00 5.092237e-02 0
1.012361e+00 5.379365e-02 0
1.000682e+00 5.631731e-02 0
9.884544e-01 5.827516e-02 0
9.757193e-01 5.937282e-02 0
9.624159e-01 5.930102e-02 0
9.483238e-01 5.787944e-02 0
9.331174e-01 5.522444e-02 0
9.165790e-01 5.140491e-02 0
9.165790e-01 4.918337e-02 0
1.092103e+00 -4.593736e-04 0
1.092103e+00 -4.373469e-04 0
1.092228e+00 -3.544528e-04 0
1.092339e+00 -1.911491e-04 0
1.092428e+00 5.866757e-05 0
1.092484e+00 4.034234e-04 0
1.092497e+00 8.542364e-04 0
1.092453e+00 1.424777e-03 0
1.092335e+00 2.131817e-03 0
1.092125e+00 2.995343e-03 0
1.091802e+00 4.038778e-03 0
1.091339e+00 5.289316e-03 0
1.090709e+00 6.778398e-03 0
1.089879e+00 8.542381e-03 0
1.088811e+00 1.062345e-02 0
1.087463e+00 1.307086e-02 0
1.085789e+00 1.594255e-02 0
1.083735e+00 1.930732e-02 0
1.081243e+00 2.324758e-02 0
1.078245e+00 2.786293e-02 0
1.074665e+00 3.327462e-02 0
1.070417e+00 3.963128e-02 0
1.065397e+00 4.711598e-02 0
1.059476e+00 5.595501e-02 0
1.052489e+00 6.642848e-02 0
1.044210e+00 7.888196e-02 0
1.034297e+00 9.373615e-02 0
1.022199e+00 1.114825e-01 0
1.006960e+00 1.326244e-01 0
9.868274e-01 1.574351e-01 0
9.585468e-01 1.851546e-01 0
9.163633e-01 2.116780e-01 0
8.525405e-01 2.244388e-01 0
7.713601e-01 2.011176e-01 0
7.341524e-01 1.511773e-01 0
7.206532e-01 1.040308e-01 0
7.159145e-01 6.709647e-02 0
7.133973e-01 4.010999e-02 0
7.111360e-01 2.135352e-02 0
7.089495e-01 8.994707e-03 0
7.065447e-01 1.043101e-03 0
7.041239e-01 -4.187008e-03 0
7.019205e-01 -7.692760e-03 0
7.000002e-01 -1.009962e-02 0
6.983496e-01 -1.177273e-02 0
6.969470e-01 -1.290625e-02 0
6.957924e-01 -1.360231e-02 0
6.949072e-01 -1.392423e-02 0
6.943217e-01 -1.392430e-02 0
6.940641e-01 -1.365390e-02 0
6.941537e-01 -1.316457e-02 0
6.945998e-01 -1.250613e-02 0
6.954031e-01 -1.172453e-02 0
6.965582e-01 -1.086060e-02 0
6.980572e-01 -9.949447e-03 0
6.998921e-01 -9.020144e-03 0
7.020575e-01 -8.095685e-03 0
7.045531e-01 -7.192990e-03 0
7.073862e-01 -6.323346e-03 0
7.105747e-01 -5.493469e-03 0
7.141470e-01 -4.705987e-03 0
7.181386e-01 -3.959530e-03 0
7.225435e-01 -3.256760e-03 0
7.273734e-01 -2.625292e-03 0
7.327148e-01 -2.112950e-03 0