<?xml version="1.0"?>
<VTKFile type="StructuredGrid">
<StructuredGrid WholeExtent="0 158 0 30 0 0 ">
<Piece Extent="0 158 0 30 0 0 ">
<Points>
<DataArray type="Float64" format="ascii" NumberOfComponents="3">
0.000000e+00 0.000000e+00 0.000000e+00
3.164557e-02 0.000000e+00 0.000000e+00
6.329114e-02 0.000000e+00 0.000000e+00
9.493671e-02 0.000000e+00 0.000000e+00
1.265823e-01 0.000000e+00 0.000000e+00
1.582278e-01 0.000000e+00 0.000000e+00
1.898734e-01 0.000000e+00 0.000000e+00
2.215190e-01 0.000000e+00 0.000000e+00
2.531646e-01 0.000000e+00 0.000000e+00
2.848101e-01 0.000000e+00 0.000000e+00
3.164557e-01 0.000000e+00 0.000000e+00
3.481013e-01 0.000000e+00 0.000000e+00
3.797468e-01 0.000000e+00 0.000000e+00
4.113924e-01 0.000000e+00 0.000000e+00
4.430380e-01 0.000000e+00 0.000000e+00
4.746835e-01 0.000000e+00 0.000000e+00
5.063291e-01 0.000000e+00 0.000000e+00
5.379747e-01 0.000000e+00 0.000000e+00
5.696203e-01 0.000000e+00 0.000000e+00
6.012658e-01 0.000000e+00 0.000000e+00
6.329114e-01 0.000000e+00 0.000000e+00
6.645570e-01 0.000000e+00 0.000000e+00
6.962025e-01 0.000000e+00 0.000000e+00
7.278481e-01 0.000000e+00 0.000000e+00
7.594937e-01 0.000000e+00 0.000000e+00
7.911392e-01 0.000000e+00 0.000000e+00
8.227848e-01 0.000000e+00 0.000000e+00
8.544304e-01 0.000000e+00 0.000000e+00
8.860759e-01 0.000000e+00 0.000000e+00
9.177215e-01 0.000000e+00 0.000000e+00
9.493671e-01 0.000000e+00 0.000000e+00
9.810127e-01 0.000000e+00 0.000000e+00
1.012658e+00 0.000000e+00 0.000000e+00
1.044304e+00 0.000000e+00 0.000000e+00
1.075949e+00 0.000000e+00 0.000000e+00
1.107595e+00 0.000000e+00 0.000000e+00
1.139241e+00 0.000000e+00 0.000000e+00
1.170886e+00 0.000000e+00 0.000000e+00
1.202532e+00 0.000000e+00 0.000000e+00
1.234177e+00 0.000000e+00 0.000000e+00
1.265823e+00 0.000000e+00 0.000000e+00
1.297468e+00 0.000000e+00 0.000000e+00
1.329114e+00 0.000000e+00 0.000000e+00
1.360759e+00 0.000000e+00 0.000000e+00
1.392405e+00 0.000000e+00 0.000000e+00
1.424051e+00 0.000000e+00 0.000000e+00
1.455696e+00 0.000000e+00 0.000000e+00
1.487342e+00 0.000000e+00 0.000000e+00
1.518987e+00 0.000000e+00 0.000000e+00
1.550633e+00 0.000000e+00 0.000000e+00
1.582278e+00 0.000000e+00 0.000000e+00
1.613924e+00 0.000000e+00 0.000000e+00
1.645570e+00 0.000000e+00 0.000000e+00
1.677215e+00 0.000000e+00 0.000000e+00
1.708861e+00 0.000000e+00 0.000000e+00
1.740506e+00 0.000000e+00 0.000000e+00
1.772152e+00 0.000000e+00 0.000000e+00
1.803797e+00 0.000000e+00 0.000000e+00
1.835443e+00 0.000000e+00 0.000000e+00
1.867089e+00 0.000000e+00 0.000000e+00
1.898734e+00 0.000000e+00 0.000000e+00
1.930380e+00 0.000000e+00 0.000000e+00
1.962025e+00 0.000000e+00 0.000000e+00
1.993671e+00 0.000000e+00 0.000000e+00
2.025316e+00 0.000000e+00 0.000000e+00
2.056962e+00 0.000000e+00 0.000000e+00
2.088608e+00 0.000000e+00 0.000000e+00
2.120253e+00 0.000000e+00 0.000000e+00
2.151899e+00 0.000000e+00 0.000000e+00
2.183544e+00 0.000000e+00 0.000000e+00
2.215190e+00 0.000000e+00 0.000000e+00
2.246835e+00 0.000000e+00 0.000000e+00
2.278481e+00 0.000000e+00 0.000000e+00
2.310127e+00 0.000000e+00 0.000000e+00
2.341772e+00 0.000000e+00 0.000000e+00
2.373418e+00 0.000000e+00 0.000000e+00
2.405063e+00 0.000000e+00 0.000000e+00
2.436709e+00 0.000000e+00 0.000000e+00
2.468354e+00 0.000000e+00 0.000000e+00
2.500000e+00 0.000000e+00 0.000000e+00
2.531646e+00 0.000000e+00 0.000000e+00
2.563291e+00 0.000000e+00 0.000000e+00
2.594937e+00 0.000000e+00 0.000000e+00
2.626582e+00 0.000000e+00 0.000000e+00
2.658228e+00 0.000000e+00 0.000000e+00
2.689873e+00 0.000000e+00 0.000000e+00
2.721519e+00 0.000000e+00 0.000000e+00
2.753165e+00 0.000000e+00 0.000000e+00
2.784810e+00 0.000000e+00 0.000000e+00
2.816456e+00 0.000000e+00 0.000000e+00
2.848101e+00 0.000000e+00 0.000000e+00
2.879747e+00 0.000000e+00 0.000000e+00
2.911392e+00 0.000000e+00 0.000000e+00
2.943038e+00 0.000000e+00 0.000000e+00
2.974684e+00 0.000000e+00 0.000000e+00
3.006329e+00 0.000000e+00 0.000000e+00
3.037975e+00 0.000000e+00 0.000000e+00
3.069620e+00 0.000000e+00 0.000000e+00
3.101266e+00 0.000000e+00 0.000000e+00
3.132911e+00 0.000000e+00 0.000000e+00
3.164557e+00 0.000000e+00 0.000000e+00
3.196203e+00 0.000000e+00 0.000000e+00
3.227848e+00 0.000000e+00 0.000000e+00
3.259494e+00 0.000000e+00 0.000000e+00
3.291139e+00 0.000000e+00 0.000000e+00
3.322785e+00 0.000000e+00 0.000000e+00
3.354430e+00 0.000000e+00 0.000000e+00
3.386076e+00 0.000000e+00 0.000000e+00
3.417722e+00 0.000000e+00 0.000000e+00
3.449367e+00 0.000000e+00 0.000000e+00
3.481013e+00 0.000000e+00 0.000000e+00
3.512658e+00 0.000000e+00 0.000000e+00
3.544304e+00 0.000000e+00 0.000000e+00
3.575949e+00 0.000000e+00 0.000000e+00
3.607595e+00 0.000000e+00 0.000000e+00
3.639241e+00 0.000000e+00 0.000000e+00
3.670886e+00 0.000000e+00 0.000000e+00
3.702532e+00 0.000000e+00 0.000000e+00
3.734177e+00 0.000000e+00 0.000000e+00
3.765823e+00 0.000000e+00 0.000000e+00
3.797468e+00 0.000000e+00 0.000000e+00
3.829114e+00 0.000000e+00 0.000000e+00
3.860759e+00 0.000000e+00 0.000000e+00
3.892405e+00 0.000000e+00 0.000000e+00
3.924051e+00 0.000000e+00 0.000000e+00
3.955696e+00 0.000000e+00 0.000000e+00
3.987342e+00 0.000000e+00 0.000000e+00
4.018987e+00 0.000000e+00 0.000000e+00
4.050633e+00 0.000000e+00 0.000000e+00
4.082278e+00 0.000000e+00 0.000000e+00
4.113924e+00 0.000000e+00 0.000000e+00
4.145570e+00 0.000000e+00 0.000000e+00
4.177215e+00 0.000000e+00 0.000000e+00
4.208861e+00 0.000000e+00 0.000000e+00
4.240506e+00 0.000000e+00 0.000000e+00
4.272152e+00 0.000000e+00 0.000000e+00
4.303797e+00 0.000000e+00 0.000000e+00
4.335443e+00 0.000000e+00 0.000000e+00
4.367089e+00 0.000000e+00 0.000000e+00
4.398734e+00 0.000000e+00 0.000000e+00
4.430380e+00 0.000000e+00 0.000000e+00
4.462025e+00 0.000000e+00 0.000000e+00
4.493671e+00 0.000000e+00 0.000000e+00
4.525316e+00 0.000000e+00 0.000000e+00
4.556962e+00 0.000000e+00 0.000000e+00
4.588608e+00 0.000000e+00 0.000000e+00
4.620253e+00 0.000000e+00 0.000000e+00
4.651899e+00 0.000000e+00 0.000000e+00
4.683544e+00 0.000000e+00 0.000000e+00
4.715190e+00 0.000000e+00 0.000000e+00
4.746835e+00 0.000000e+00 0.000000e+00
4.778481e+00 0.000000e+00 0.000000e+00
4.810127e+00 0.000000e+00 0.000000e+00
4.841772e+00 0.000000e+00 0.000000e+00
4.873418e+00 0.000000e+00 0.000000e+00
4.905063e+00 0.000000e+00 0.000000e+00
4.936709e+00 0.000000e+00 0.000000e+00
4.968354e+00 0.000000e+00 0.000000e+00
5.000000e+00 0.000000e+00 0.000000e+00
0.000000e+00 3.333333e-02 0.000000e+00
3.164557e-02 3.333333e-02 0.000000e+00
6.329114e-02 3.333333e-02 0.000000e+00
9.493671e-02 3.333333e-02 0.000000e+00
1.265823e-01 3.333333e-02 0.000000e+00
1.582278e-01 3.333333e-02 0.000000e+00
1.898734e-01 3.333333e-02 0.000000e+00
2.215190e-01 3.333333e-02 0.000000e+00
2.531646e-01 3.333333e-02 0.000000e+00
2.848101e-01 3.333333e-02 0.000000e+00
3.164557e-01 3.333333e-02 0.000000e+00
3.481013e-01 3.333333e-02 0.000000e+00
3.797468e-01 3.333333e-02 0.000000e+00
4.113924e-01 3.333333e-02 0.000000e+00
4.430380e-01 3.333333e-02 0.000000e+00
4.746835e-01 3.333333e-02 0.000000e+00
5.063291e-01 3.333333e-02 0.000000e+00
5.379747e-01 3.333333e-02 0.000000e+00
5.696203e-01 3.333333e-02 0.000000e+00
6.012658e-01 3.333333e-02 0.000000e+00
6.329114e-01 3.333333e-02 0.000000e+00
6.645570e-01 3.333333e-02 0.000000e+00
6.962025e-01 3.333333e-02 0.000000e+00
7.278481e-01 3.333333e-02 0.000000e+00
7.594937e-01 3.333333e-02 0.000000e+00
7.911392e-01 3.333333e-02 0.000000e+00
8.227848e-01 3.333333e-02 0.000000e+00
8.544304e-01 3.333333e-02 0.000000e+00
8.860759e-01 3.333333e-02 0.000000e+00
9.177215e-01 3.333333e-02 0.000000e+00
9.493671e-01 3.333333e-02 0.000000e+00
9.810127e-01 3.333333e-02 0.000000e+00
1.012658e+00 3.333333e-02 0.000000e+00
1.044304e+00 3.333333e-02 0.000000e+00
1.075949e+00 3.333333e-02 0.000000e+00
1.107595e+00 3.333333e-02 0.000000e+00
1.139241e+00 3.333333e-02 0.000000e+00
1.170886e+00 3.333333e-02 0.000000e+00
1.202532e+00 3.333333e-02 0.000000e+00
1.234177e+00 3.333333e-02 0.000000e+00
1.265823e+00 3.333333e-02 0.000000e+00
1.297468e+00 3.333333e-02 0.000000e+00
1.329114e+00 3.333333e-02 0.000000e+00
1.360759e+00 3.333333e-02 0.000000e+00
1.392405e+00 3.333333e-02 0.000000e+00
1.424051e+00 3.333333e-02 0.000000e+00
1.455696e+00 3.333333e-02 0.000000e+00
1.487342e+00 3.333333e-02 0.000000e+00
1.518987e+00 3.333333e-02 0.000000e+00
1.550633e+00 3.333333e-02 0.000000e+00
1.582278e+00 3.333333e-02 0.000000e+00
1.613924e+00 3.333333e-02 0.000000e+00
1.645570e+00 3.333333e-02 0.000000e+00
1.677215e+00 3.333333e-02 0.000000e+00
1.708861e+00 3.333333e-02 0.000000e+00
1.740506e+00 3.333333e-02 0.000000e+00
1.772152e+00 3.333333e-02 0.000000e+00
1.803797e+00 3.333333e-02 0.000000e+00
1.835443e+00 3.333333e-02 0.000000e+00
1.867089e+00 3.333333e-02 0.000000e+00
1.898734e+00 3.333333e-02 0.000000e+00
1.930380e+00 3.333333e-02 0.000000e+00
1.962025e+00 3.333333e-02 0.000000e+00
1.993671e+00 3.333333e-02 0.000000e+00
2.025316e+00 3.333333e-02 0.000000e+00
2.056962e+00 3.333333e-02 0.000000e+00
2.088608e+00 3.333333e-02 0.000000e+00
2.120253e+00 3.333333e-02 0.000000e+00
2.151899e+00 3.333333e-02 0.000000e+00
2.183544e+00 3.333333e-02 0.000000e+00
2.215190e+00 3.333333e-02 0.000000e+00
2.246835e+00 3.333333e-02 0.000000e+00
2.278481e+00 3.333333e-02 0.000000e+00
2.310127e+00 3.333333e-02 0.000000e+00
2.341772e+00 3.333333e-02 0.000000e+00
2.373418e+00 3.333333e-02 0.000000e+00
2.405063e+00 3.333333e-02 0.000000e+00
2.436709e+00 3.333333e-02 0.000000e+00
2.468354e+00 3.333333e-02 0.000000e+00
2.500000e+00 3.333333e-02 0.000000e+00
2.531646e+00 3.333333e-02 0.000000e+00
2.563291e+00 3.333333e-02 0.000000e+00
2.594937e+00 3.333333e-02 0.000000e+00
2.626582e+00 3.333333e-02 0.000000e+00
2.658228e+00 3.333333e-02 0.000000e+00
2.689873e+00 3.333333e-02 0.000000e+00
2.721519e+00 3.333333e-02 0.000000e+00
2.753165e+00 3.333333e-02 0.000000e+00
2.784810e+00 3.333333e-02 0.000000e+00
2.816456e+00 3.333333e-02 0.000000e+00
2.848101e+00 3.333333e-02 0.000000e+00
2.879747e+00 3.333333e-02 0.000000e+00
[...]
<PointData>
<DataArray Name="Velocity" type="Float64" format="ascii" NumberOfComponents="3">
0.000000e+00 0.000000e+00 0
0.000000e+00 0.000000e+00 0
0.000000e+00 0.000000e+00 0
0.000000e+00 0.000000e+00 0
0.000000e+00 0.000000e+00 0
0.000000e+00 0.000000e+00 0
0.000000e+00 0.000000e+00 0
0.000000e+00 0.000000e+00 0
0.000000e+00 0.000000e+00 0
0.000000e+00 0.000000e+00 0
0.000000e+00 0.000000e+00 0
0.000000e+00 0.000000e+00 0
0.000000e+00 0.000000e+00 0
0.000000e+00 0.000000e+00 0
0.000000e+00 0.000000e+00 0
0.000000e+00 0.000000e+00 0
0.000000e+00 0.000000e+00 0
0.000000e+00 0.000000e+00 0
0.000000e+00 0.000000e+00 0
4.702827e-17 0.000000e+00 0
0.000000e+00 0.000000e+00 0
0.000000e+00 0.000000e+00 0
0.000000e+00 0.000000e+00 0
1.879204e-17 0.000000e+00 0
0.000000e+00 0.000000e+00 0
0.000000e+00 0.000000e+00 0
0.000000e+00 0.000000e+00 0
-3.208283e-17 0.000000e+00 0
0.000000e+00 0.000000e+00 0
0.000000e+00 0.000000e+00 0
0.000000e+00 0.000000e+00 0
-2.704433e-18 0.000000e+00 0
0.000000e+00 0.000000e+00 0
0.000000e+00 0.000000e+00 0
0.000000e+00 0.000000e+00 0
0.000000e+00 0.000000e+00 0
0.000000e+00 0.000000e+00 0
0.000000e+00 0.000000e+00 0
3.015098e-17 0.000000e+00 0
0.000000e+00 0.000000e+00 0
0.000000e+00 0.000000e+00 0
0.000000e+00 0.000000e+00 0
0.000000e+00 0.000000e+00 0
0.000000e+00 0.000000e+00 0
0.000000e+00 0.000000e+00 0
0.000000e+00 0.000000e+00 0
2.228314e-17 0.000000e+00 0
0.000000e+00 0.000000e+00 0
0.000000e+00 0.000000e+00 0
0.000000e+00 0.000000e+00 0
0.000000e+00 0.000000e+00 0
0.000000e+00 0.000000e+00 0
0.000000e+00 0.000000e+00 0
0.000000e+00 0.000000e+00 0
4.403965e-17 0.000000e+00 0
0.000000e+00 0.000000e+00 0
0.000000e+00 0.000000e+00 0
0.000000e+00 0.000000e+00 0
0.000000e+00 0.000000e+00 0
0.000000e+00 0.000000e+00 0
0.000000e+00 0.000000e+00 0
0.000000e+00 0.000000e+00 0
4.342267e-17 0.000000e+00 0
0.000000e+00 0.000000e+00 0
0.000000e+00 0.000000e+00 0
0.000000e+00 0.000000e+00 0
0.000000e+00 0.000000e+00 0
0.000000e+00 0.000000e+00 0
0.000000e+00 0.000000e+00 0
0.000000e+00 0.000000e+00 0
0.000000e+00 0.000000e+00 0
0.000000e+00 0.000000e+00 0
0.000000e+00 0.000000e+00 0
0.000000e+00 0.000000e+00 0
0.000000e+00 0.000000e+00 0
0.000000e+00 0.000000e+00 0
0.000000e+00 0.000000e+00 0
0.000000e+00 0.000000e+00 0
0.000000e+00 0.000000e+00 0
0.000000e+00 0.000000e+00 0
0.000000e+00 0.000000e+00 0
0.000000e+00 0.000000e+00 0
0.000000e+00 0.000000e+00 0
0.000000e+00 0.000000e+00 0
0.000000e+00 0.000000e+00 0
0.000000e+00 0.000000e+00 0
0.000000e+00 0.000000e+00 0
0.000000e+00 0.000000e+00 0
0.000000e+00 0.000000e+00 0
0.000000e+00 0.000000e+00 0
0.000000e+00 0.000000e+00 0
0.000000e+00 0.000000e+00 0
0.000000e+00 0.000000e+00 0
0.000000e+00 0.000000e+00 0
0.000000e+00 0.000000e+00 0
0.000000e+00 0.000000e+00 0
0.000000e+00 0.000000e+00 0
0.000000e+00 0.000000e+00 0
0.000000e+00 0.000000e+00 0
0.000000e+00 0.000000e+00 0
0.000000e+00 0.000000e+00 0
0.000000e+00 0.000000e+00 0
0.000000e+00 0.000000e+00 0
0.000000e+00 0.000000e+00 0
0.000000e+00 0.000000e+00 0
0.000000e+00 0.000000e+00 0
0.000000e+00 0.000000e+00 0
0.000000e+00 0.000000e+00 0
0.000000e+00 0.000000e+00 0
0.000000e+00 0.000000e+00 0
0.000000e+00 0.000000e+00 0
0.000000e+00 0.000000e+00 0
0.000000e+00 0.000000e+00 0
0.000000e+00 0.000000e+00 0
0.000000e+00 0.000000e+00 0
0.000000e+00 0.000000e+00 0
0.000000e+00 0.000000e+00 0
0.000000e+00 0.000000e+00 0
0.000000e+00 0.000000e+00 0
0.000000e+00 0.000000e+00 0
0.000000e+00 0.000000e+00 0
0.000000e+00 0.000000e+00 0
0.000000e+00 0.000000e+00 0
0.000000e+00 0.000000e+00 0
0.000000e+00 0.000000e+00 0
0.000000e+00 0.000000e+00 0
0.000000e+00 0.000000e+00 0
0.000000e+00 0.000000e+00 0
0.000000e+00 0.000000e+00 0
0.000000e+00 0.000000e+00 0
0.000000e+00 0.000000e+00 0
0.000000e+00 0.000000e+00 0
0.000000e+00 0.000000e+00 0
0.000000e+00 0.000000e+00 0
0.000000e+00 0.000000e+00 0
0.000000e+00 0.000000e+00 0
0.000000e+00 0.000000e+00 0
0.000000e+00 0.000000e+00 0
0.000000e+00 0.000000e+00 0
0.000000e+00 0.000000e+00 0
0.000000e+00 0.000000e+00 0
0.000000e+00 0.000000e+00 0
0.000000e+00 0.000000e+00 0
0.000000e+00 0.000000e+00 0
0.000000e+00 0.000000e+00 0
0.000000e+00 0.000000e+00 0
0.000000e+00 0.000000e+00 0
0.000000e+00 0.000000e+00 0
0.000000e+00 0.000000e+00 0
0.000000e+00 0.000000e+00 0
0.000000e+00 0.000000e+00 0
0.000000e+00 0.000000e+00 0
0.000000e+00 0.000000e+00 0
0.000000e+00 0.000000e+00 0
0.000000e+00 0.000000e+00 0
0.000000e+00 0.000000e+00 0
0.000000e+00 0.000000e+00 0
0.000000e+00 0.000000e+00 0
0.000000e+00 0.000000e+00 0
2.004769e+00 -2.102015e-05 0
2.004769e+00 -2.124035e-05 0
2.004785e+00 -1.443442e-05 0
2.004789e+00 3.690031e-06 0
2.004771e+00 3.069814e-05 0
2.004723e+00 6.783376e-05 0
2.004635e+00 1.161190e-04 0
2.004494e+00 1.766735e-04 0
2.004289e+00 2.508251e-04 0
2.004006e+00 3.401439e-04 0
2.003630e+00 4.464400e-04 0
2.003144e+00 5.717621e-04 0
2.002529e+00 7.183720e-04 0
2.001764e+00 8.887766e-04 0
2.000824e+00 1.085796e-03 0
1.999682e+00 1.312613e-03 0
1.998309e+00 1.572924e-03 0
1.996670e+00 1.871067e-03 0
1.994728e+00 2.212093e-03 0
1.992438e+00 2.601973e-03 0
1.989753e+00 3.047797e-03 0
1.986613e+00 3.558023e-03 0
1.982954e+00 4.142773e-03 0
1.978698e+00 4.813906e-03 0
1.973758e+00 5.584839e-03 0
1.968029e+00 6.469354e-03 0
1.961395e+00 7.478501e-03 0
1.953729e+00 8.613846e-03 0
1.944907e+00 9.853686e-03 0
1.934832e+00 1.112904e-02 0
1.923504e+00 1.228983e-02 0
1.911116e+00 1.307802e-02 0
1.898198e+00 1.316395e-02 0
1.885684e+00 1.233209e-02 0
1.874606e+00 1.072375e-02 0
1.865495e+00 8.749994e-03 0
1.858390e+00 6.788575e-03 0
1.853056e+00 5.058610e-03 0
1.849170e+00 3.638414e-03 0
1.846415e+00 2.522668e-03 0
1.844520e+00 1.668999e-03 0
1.843271e+00 1.024162e-03 0
1.842504e+00 5.334314e-04 0
1.842098e+00 1.105002e-04 0
1.841962e+00 -2.687855e-04 0
1.842039e+00 -5.619627e-04 0
1.842269e+00 -7.670350e-04 0
1.842600e+00 -8.957644e-04 0
1.842989e+00 -9.600445e-04 0
1.843399e+00 -9.711935e-04 0
1.843799e+00 -9.394746e-04 0
1.844167e+00 -8.738828e-04 0
1.844483e+00 -7.820875e-04 0
1.844733e+00 -6.704081e-04 0
1.844907e+00 -5.434296e-04 0
1.844998e+00 -4.042875e-04 0
1.845009e+00 -2.582753e-04 0
1.844947e+00 -1.202082e-04 0
1.844818e+00 -1.279541e-05 0
1.844626e+00 6.381148e-05 0
1.844377e+00 1.268039e-04 0
1.844074e+00 1.834014e-04 0
1.843722e+00 2.359168e-04 0
1.843322e+00 2.852311e-04 0
1.842878e+00 3.317413e-04 0
1.842391e+00 3.756627e-04 0
1.841865e+00 4.171424e-04 0
1.841301e+00 4.563015e-04 0
1.840702e+00 4.932442e-04 0
1.840069e+00 5.280563e-04 0
1.839404e+00 5.608081e-04 0
1.838709e+00 5.915672e-04 0
1.837986e+00 6.204138e-04 0
1.837237e+00 6.474448e-04 0
1.836463e+00 6.727611e-04 0
1.835666e+00 6.964466e-04 0
1.834848e+00 7.185575e-04 0
1.834008e+00 7.391319e-04 0
1.833150e+00 7.582164e-04 0
1.832275e+00 7.758860e-04 0
1.831383e+00 7.922408e-04 0
1.830475e+00 8.073796e-04 0
1.829554e+00 8.213720e-04 0
1.828620e+00 8.342525e-04 0
1.827674e+00 8.460398e-04 0
1.826716e+00 8.567670e-04 0
1.825749e+00 8.664955e-04 0
1.824772e+00 8.753038e-04 0
1.823787e+00 8.832637e-04 0
1.822794e+00 8.904225e-04 0
1.821795e+00 8.968066e-04 0
1.820789e+00 9.024373e-04 0
1.819778e+00 9.073459e-04 0
1.818761e+00 9.115755e-04 0
1.817741e+00 9.151716e-04 0
1.816717e+00 9.181733e-04 0
1.815689e+00 9.206108e-04 0
1.814659e+00 9.225110e-04 0
1.813627e+00 9.239017e-04 0
1.812593e+00 9.248116e-04 0
1.811558e+00 9.252665e-04 0
1.810522e+00 9.252866e-04 0
1.809485e+00 9.248888e-04 0
1.808448e+00 9.240919e-04 0
1.807412e+00 9.229191e-04 0
1.806376e+00 9.213969e-04 0
1.805341e+00 9.195490e-04 0
1.804308e+00 9.173925e-04 0
1.803276e+00 9.149374e-04 0
1.802245e+00 9.121917e-04 0
1.801217e+00 9.091652e-04 0
1.800191e+00 9.058724e-04 0
1.799168e+00 9.023295e-04 0
1.798147e+00 8.985517e-04 0
1.797129e+00 8.945507e-04 0
1.796115e+00 8.903347e-04 0
1.795104e+00 8.859100e-04 0
1.794097e+00 8.812830e-04 0
1.793093e+00 8.764606e-04 0
1.792094e+00 8.714502e-04 0
1.791098e+00 8.662591e-04 0
1.790107e+00 8.608935e-04 0
1.789121e+00 8.553587e-04 0
1.788139e+00 8.496588e-04 0
1.787162e+00 8.437972e-04 0
1.786190e+00 8.377770e-04 0
1.785223e+00 8.316012e-04 0
1.784261e+00 8.252726e-04 0
1.783305e+00 8.187939e-04 0
1.782354e+00 8.121670e-04 0
1.781409e+00 8.053933e-04 0
1.780470e+00 7.984738e-04 0
1.779537e+00 7.914090e-04 0
1.778610e+00 7.841996e-04 0
1.777690e+00 7.768456e-04 0
1.776776e+00 7.693470e-04 0
1.775868e+00 7.617035e-04 0
1.774967e+00 7.539145e-04 0
1.774073e+00 7.459786e-04 0
1.773186e+00 7.378940e-04 0
1.772307e+00 7.296575e-04 0
1.771434e+00 7.212646e-04 0
1.770570e+00 7.127085e-04 0
1.769712e+00 7.039789e-04 0
1.768863e+00 6.950609e-04 0
1.768022e+00 6.859320e-04 0
1.767189e+00 6.765588e-04 0
1.766364e+00 6.668918e-04 0
1.765548e+00 6.568560e-04 0
1.764742e+00 6.463370e-04 0
1.763945e+00 6.351579e-04 0
1.763159e+00 6.230334e-04 0
1.762384e+00 6.094870e-04 0
1.761622e+00 5.936578e-04 0
1.760876e+00 5.736728e-04 0
1.760150e+00 5.460213e-04 0
1.759450e+00 4.783628e-04 0
1.758789e+00 5.399843e-04 0
1.758789e+00 6.529718e-04 0
3.239841e+00 -4.209009e-05 0
3.239841e+00 -3.845349e-05 0
3.239856e+00 -2.160701e-05 0
3.239860e+00 1.412340e-05 0
3.239844e+00 6.899232e-05 0
3.239801e+00 1.443264e-04 0
3.239720e+00 2.419524e-04 0
3.239593e+00 3.641322e-04 0
3.239408e+00 5.135858e-04 0
3.239152e+00 6.934864e-04 0
3.238813e+00 9.074597e-04 0
3.238375e+00 1.159581e-03 0
3.237820e+00 1.454395e-03 0
3.237130e+00 1.796976e-03 0
3.236282e+00 2.193010e-03 0
3.235252e+00 2.648968e-03 0
3.234012e+00 3.172301e-03 0
3.232534e+00 3.771621e-03 0
3.230782e+00 4.457032e-03 0
3.228717e+00 5.240497e-03 0
3.226296e+00 6.136275e-03 0
3.223466e+00 7.161525e-03 0
3.220170e+00 8.336806e-03 0
3.216337e+00 9.686448e-03 0
3.211888e+00 1.123825e-02 0
3.206726e+00 1.302153e-02 0
3.200739e+00 1.506181e-02 0
3.193792e+00 1.736792e-02 0
3.185734e+00 1.990511e-02 0
3.176408e+00 2.254439e-02 0
3.165693e+00 2.498208e-02 0
3.153629e+00 2.665596e-02 0
3.140684e+00 2.678832e-02 0
3.128119e+00 2.485037e-02 0
3.117565e+00 2.126518e-02 0
3.109445e+00 1.708069e-02 0
3.103474e+00 1.310226e-02 0
3.099180e+00 9.711549e-03 0
3.096132e+00 6.995880e-03 0
3.093993e+00 4.898216e-03 0
3.092514e+00 3.311515e-03 0
3.091513e+00 2.123989e-03 0
3.090859e+00 1.235158e-03 0
3.090448e+00 5.701779e-04 0
3.090163e+00 6.287444e-05 0
3.089947e+00 -3.227564e-04 0
3.089775e+00 -5.916873e-04 0
3.089627e+00 -7.590917e-04 0
3.089489e+00 -8.411589e-04 0
3.089349e+00 -8.531236e-04 0
3.089199e+00 -8.086084e-04 0
3.089030e+00 -7.194850e-04 0
3.088838e+00 -5.959837e-04 0
3.088619e+00 -4.470168e-04 0
3.088371e+00 -2.796940e-04 0
3.088101e+00 -1.070581e-04 0
3.087812e+00 5.453103e-05 0
3.087504e+00 2.014262e-04 0
3.087172e+00 3.377606e-04 0
3.086799e+00 4.643339e-04 0
3.086381e+00 5.812199e-04 0
3.085917e+00 6.900976e-04 0
3.085410e+00 7.923724e-04 0
3.084861e+00 8.888934e-04 0
3.084273e+00 9.801666e-04 0
3.083647e+00 1.066523e-03 0
3.082985e+00 1.148214e-03 0
3.082290e+00 1.225446e-03 0
3.081562e+00 1.298401e-03 0
3.080805e+00 1.367234e-03 0
3.080019e+00 1.432088e-03 0
3.079205e+00 1.493110e-03 0
3.078367e+00 1.550462e-03 0
3.077504e+00 1.604317e-03 0
3.076619e+00 1.654838e-03 0
3.075712e+00 1.702167e-03 0
3.074786e+00 1.746420e-03 0
3.073841e+00 1.787705e-03 0
3.072879e+00 1.826150e-03 0
3.071900e+00 1.861906e-03 0
3.070906e+00 1.895137e-03 0
3.069898e+00 1.925985e-03 0
3.068877e+00 1.954559e-03 0
3.067843e+00 1.980940e-03 0
3.066798e+00 2.005206e-03 0
3.065743e+00 2.027459e-03 0
3.064678e+00 2.047819e-03 0
3.063603e+00 2.066410e-03 0
3.062521e+00 2.083332e-03 0
3.061431e+00 2.098663e-03 0
3.060334e+00 2.112465e-03 0
3.059230e+00 2.124805e-03 0
3.058121e+00 2.135759e-03 0
3.057007e+00 2.145408e-03 0
3.055888e+00 2.153827e-03 0
3.054765e+00 2.161080e-03 0
3.053638e+00 2.167226e-03 0
3.052508e+00 2.172318e-03 0
3.051375e+00 2.176414e-03 0
3.050240e+00 2.179567e-03 0
3.049103e+00 2.181823e-03 0
3.047964e+00 2.183223e-03 0
3.046824e+00 2.183808e-03 0
3.045683e+00 2.183616e-03 0
3.044542e+00 2.182694e-03 0
3.043400e+00 2.181084e-03 0
3.042258e+00 2.178823e-03 0
3.041116e+00 2.175939e-03 0
3.039975e+00 2.172457e-03 0
3.038835e+00 2.168398e-03 0
3.037695e+00 2.163790e-03 0
3.036557e+00 2.158659e-03 0
3.035421e+00 2.153033e-03 0
3.034285e+00 2.146935e-03 0
3.033152e+00 2.140384e-03 0
3.032021e+00 2.133396e-03 0
3.030892e+00 2.125987e-03 0
3.029766e+00 2.118170e-03 0
3.028642e+00 2.109959e-03 0
3.027520e+00 2.101370e-03 0
3.026402e+00 2.092413e-03 0
3.025287e+00 2.083100e-03 0
3.024175e+00 2.073441e-03 0
3.023066e+00 2.063442e-03 0
3.021961e+00 2.053111e-03 0
3.020860e+00 2.042453e-03 0
3.019762e+00 2.031475e-03 0
3.018669e+00 2.020182e-03 0
3.017579e+00 2.008577e-03 0
3.016494e+00 1.996663e-03 0
3.015413e+00 1.984444e-03 0
3.014337e+00 1.971921e-03 0
3.013265e+00 1.959094e-03 0
3.012198e+00 1.945964e-03 0
3.011136e+00 1.932532e-03 0
3.010080e+00 1.918797e-03 0
3.009028e+00 1.904758e-03 0
3.007982e+00 1.890413e-03 0
3.006941e+00 1.875760e-03 0
3.005906e+00 1.860793e-03 0
3.004877e+00 1.845507e-03 0
3.003853e+00 1.829892e-03 0
3.002836e+00 1.813935e-03 0
3.001825e+00 1.797613e-03 0
3.000820e+00 1.780898e-03 0
2.999822e+00 1.763745e-03 0
2.998831e+00 1.746086e-03 0
2.997847e+00 1.727825e-03 0
2.996870e+00 1.708811e-03 0
2.995901e+00 1.688824e-03 0
2.994940e+00 1.667515e-03 0
2.993987e+00 1.644343e-03 0
2.993044e+00 1.618420e-03 0
2.992111e+00 1.588236e-03 0
2.991189e+00 1.551120e-03 0
2.990281e+00 1.502089e-03 0
2.989386e+00 1.433050e-03 0
2.988478e+00 1.415820e-03 0
2.988478e+00 1.439319e-03 0
3.963813e+00 -6.553472e-05 0
3.963813e+00 -5.920773e-05 0
3.963834e+00 -3.413342e-05 0
3.963846e+00 1.622285e-05 0
3.963843e+00 9.312314e-05 0
3.963820e+00 1.985064e-04 0
3.963770e+00 3.349377e-04 0
3.963685e+00 5.056424e-04 0
3.963558e+00 7.144843e-04 0
3.963378e+00 9.659497e-04 0
3.963137e+00 1.265151e-03 0
3.962821e+00 1.617819e-03 0
3.962417e+00 2.030335e-03 0
3.961911e+00 2.509805e-03 0
3.961287e+00 3.064199e-03 0
3.960525e+00 3.702536e-03 0
3.959605e+00 4.435101e-03 0
3.958505e+00 5.273791e-03 0
3.957198e+00 6.232523e-03 0
3.955658e+00 7.327755e-03 0
3.953850e+00 8.579244e-03 0
3.951738e+00 1.001089e-02 0
3.949280e+00 1.165171e-02 0
3.946425e+00 1.353681e-02 0
3.943113e+00 1.570796e-02 0
3.939270e+00 1.821314e-02 0
3.934798e+00 2.110284e-02 0
3.929565e+00 2.441890e-02 0
3.923382e+00 2.816542e-02 0
3.915969e+00 3.223969e-02 0
3.906925e+00 3.628334e-02 0
3.895793e+00 3.942007e-02 0
3.882523e+00 4.003430e-02 0
3.869100e+00 3.668438e-02 0
3.859364e+00 3.039332e-02 0
3.853129e+00 2.359191e-02 0
3.849264e+00 1.760094e-02 0
3.846850e+00 1.279246e-02 0
3.845312e+00 9.102835e-03 0
3.844318e+00 6.334411e-03 0
3.843672e+00 4.280912e-03 0
3.843258e+00 2.767029e-03 0
3.842996e+00 1.655154e-03 0
3.842830e+00 8.432122e-04 0
3.842720e+00 2.590999e-04 0
3.842619e+00 -1.527396e-04 0
3.842512e+00 -4.299389e-04 0
3.842391e+00 -5.947905e-04 0
3.842251e+00 -6.673465e-04 0
3.842090e+00 -6.650969e-04 0
3.841910e+00 -6.030816e-04 0
3.841708e+00 -4.941108e-04 0
3.841486e+00 -3.491542e-04 0
3.841245e+00 -1.788255e-04 0
3.840989e+00 1.979862e-06 0
3.840717e+00 1.851260e-04 0
3.840427e+00 3.705294e-04 0
3.840108e+00 5.534809e-04 0
3.839756e+00 7.295925e-04 0
3.839372e+00 8.972723e-04 0
3.838953e+00 1.056001e-03 0
3.838499e+00 1.206161e-03 0
3.838012e+00 1.348359e-03 0
3.837492e+00 1.483122e-03 0
3.836941e+00 1.610860e-03 0
3.836360e+00 1.731903e-03 0
3.835751e+00 1.846536e-03 0
3.835116e+00 1.955009e-03 0
3.834454e+00 2.057550e-03 0
3.833769e+00 2.154364e-03 0
3.833061e+00 2.245654e-03 0
3.832331e+00 2.331633e-03 0
3.831582e+00 2.412527e-03 0
3.830813e+00 2.488566e-03 0
3.830026e+00 2.559959e-03 0
3.829222e+00 2.626893e-03 0
3.828402e+00 2.689536e-03 0
3.827567e+00 2.748062e-03 0
3.826718e+00 2.802667e-03 0
3.825856e+00 2.853564e-03 0
3.824982e+00 2.900956e-03 0
3.824096e+00 2.945017e-03 0
3.823200e+00 2.985886e-03 0
3.822294e+00 3.023689e-03 0
3.821378e+00 3.058563e-03 0
3.820453e+00 3.090664e-03 0
3.819521e+00 3.120157e-03 0
3.818581e+00 3.147190e-03 0
3.817635e+00 3.171887e-03 0
3.816682e+00 3.194350e-03 0
3.815723e+00 3.214679e-03 0
3.814759e+00 3.232978e-03 0
3.813791e+00 3.249360e-03 0
3.812817e+00 3.263932e-03 0
3.811840e+00 3.276789e-03 0
3.810859e+00 3.288016e-03 0
3.809875e+00 3.297696e-03 0
3.808888e+00 3.305908e-03 0
3.807899e+00 3.312730e-03 0
3.806907e+00 3.318234e-03 0
3.805914e+00 3.322483e-03 0
3.804918e+00 3.325535e-03 0
3.803922e+00 3.327448e-03 0
3.802924e+00 3.328284e-03 0
3.801925e+00 3.328101e-03 0
3.800926e+00 3.326955e-03 0
3.799927e+00 3.324891e-03 0
3.798927e+00 3.321946e-03 0
3.797927e+00 3.318158e-03 0
3.796928e+00 3.313563e-03 0
3.795929e+00 3.308201e-03 0
3.794930e+00 3.302108e-03 0
3.793933e+00 3.295318e-03 0
3.792936e+00 3.287861e-03 0
3.791940e+00 3.279762e-03 0
3.790946e+00 3.271044e-03 0
3.789953e+00 3.261730e-03 0
3.788962e+00 3.251840e-03 0
3.787972e+00 3.241393e-03 0
3.786984e+00 3.230410e-03 0
3.785998e+00 3.218905e-03 0
3.785014e+00 3.206893e-03 0
3.784033e+00 3.194387e-03 0
3.783053e+00 3.181397e-03 0
3.782076e+00 3.167933e-03 0
3.781102e+00 3.154002e-03 0
3.780130e+00 3.139613e-03 0
3.779161e+00 3.124772e-03 0
3.778195e+00 3.109485e-03 0
3.777233e+00 3.093756e-03 0
3.776273e+00 3.077586e-03 0
3.775316e+00 3.060979e-03 0
3.774363e+00 3.043935e-03 0
3.773413e+00 3.026455e-03 0
3.772467e+00 3.008539e-03 0
3.771524e+00 2.990187e-03 0
3.770586e+00 2.971397e-03 0
3.769651e+00 2.952166e-03 0
3.768720e+00 2.932490e-03 0
3.767794e+00 2.912364e-03 0
3.766871e+00 2.891777e-03 0
3.765953e+00 2.870719e-03 0
3.765040e+00 2.849171e-03 0
3.764131e+00 2.827106e-03 0
3.763227e+00 2.804486e-03 0
3.762328e+00 2.781254e-03 0
3.761434e+00 2.757325e-03 0
3.760545e+00 2.732577e-03 0
3.759661e+00 2.706824e-03 0
3.758783e+00 2.679795e-03 0
3.757910e+00 2.651079e-03 0
3.757043e+00 2.620054e-03 0
3.756182e+00 2.585773e-03 0
3.755327e+00 2.546798e-03 0
3.754478e+00 2.501006e-03 0
3.753633e+00 2.445669e-03 0
3.752788e+00 2.377918e-03 0
3.751935e+00 2.315582e-03 0
3.751935e+00 2.290571e-03 0
4.387458e+00 -9.387349e-05 0
4.387458e+00 -8.592804e-05 0
4.387486e+00 -5.542633e-05 0
4.387508e+00 4.701949e-06 0
4.387522e+00 9.612959e-05 0
4.387522e+00 2.214772e-04 0
4.387506e+00 3.838882e-04 0
4.387468e+00 5.873326e-04 0
4.387402e+00 8.365534e-04 0
4.387303e+00 1.137059e-03 0
4.387162e+00 1.495086e-03 0
4.386972e+00 1.917589e-03 0
4.386723e+00 2.412289e-03 0
4.386404e+00 2.987743e-03 0
4.386004e+00 3.653470e-03 0
4.385511e+00 4.420143e-03 0
4.384909e+00 5.299859e-03 0
4.384183e+00 6.306503e-03 0
4.383318e+00 7.456212e-03 0
4.382294e+00 8.768092e-03 0
4.381091e+00 1.026513e-02 0
4.379687e+00 1.197532e-02 0
4.378056e+00 1.393318e-02 0
4.376170e+00 1.618168e-02 0
4.373993e+00 1.877474e-02 0
4.371476e+00 2.178037e-02 0
4.368553e+00 2.528433e-02 0
4.365112e+00 2.939282e-02 0
4.360958e+00 3.422679e-02 0
4.355711e+00 3.987909e-02 0
4.348609e+00 4.623369e-02 0
4.338175e+00 5.235913e-02 0
4.322122e+00 5.490491e-02 0
4.303417e+00 4.924394e-02 0
4.294390e+00 3.808746e-02 0
4.290967e+00 2.771993e-02 0
4.289962e+00 1.971663e-02 0
4.289870e+00 1.387416e-02 0
4.290075e+00 9.663323e-03 0
4.290348e+00 6.625970e-03 0
4.290609e+00 4.428105e-03 0
4.290833e+00 2.835641e-03 0
4.291014e+00 1.684950e-03 0
4.291150e+00 8.615393e-04 0
4.291238e+00 2.850814e-04 0
4.291280e+00 -1.044512e-04 0
4.291274e+00 -3.506726e-04 0
4.291221e+00 -4.831396e-04 0
4.291128e+00 -5.247267e-04 0
4.290998e+00 -4.939178e-04 0
4.290836e+00 -4.059665e-04 0
4.290647e+00 -2.733242e-04 0
4.290434e+00 -1.082940e-04 0
4.290202e+00 7.691035e-05 0
4.289951e+00 2.761821e-04 0
4.289677e+00 4.850209e-04 0
4.289380e+00 6.970837e-04 0
4.289059e+00 9.075745e-04 0
4.288714e+00 1.112851e-03 0
4.288344e+00 1.310784e-03 0
4.287948e+00 1.500304e-03 0
4.287526e+00 1.681085e-03 0
4.287079e+00 1.853182e-03 0
4.286608e+00 2.016796e-03 0
4.286112e+00 2.172181e-03 0
4.285594e+00 2.319604e-03 0
4.285054e+00 2.459336e-03 0
4.284494e+00 2.591635e-03 0
4.283915e+00 2.716750e-03 0
4.283317e+00 2.834921e-03 0
4.282702e+00 2.946398e-03 0
4.282070e+00 3.051446e-03 0