<?xml version="1.0"?>
<VTKFile type="StructuredGrid">
<StructuredGrid WholeExtent="0 158 0 30 0 0 ">
<Piece Extent="0 158 0 30 0 0 ">
<Points>
<DataArray type="Float64" format="ascii" NumberOfComponents="3">
0.000000e+00 0.000000e+00 0.000000e+00
3.164557e-02 0.000000e+00 0.000000e+00
6.329114e-02 0.000000e+00 0.000000e+00
9.493671e-02 0.000000e+00 0.000000e+00
1.265823e-01 0.000000e+00 0.000000e+00
1.582278e-01 0.000000e+00 0.000000e+00
1.898734e-01 0.000000e+00 0.000000e+00
2.215190e-01 0.000000e+00 0.000000e+00
2.531646e-01 0.000000e+00 0.000000e+00
2.848101e-01 0.000000e+00 0.000000e+00
3.164557e-01 0.000000e+00 0.000000e+00
3.481013e-01 0.000000e+00 0.000000e+00
3.797468e-01 0.000000e+00 0.000000e+00
4.113924e-01 0.000000e+00 0.000000e+00
4.430380e-01 0.000000e+00 0.000000e+00
4.746835e-01 0.000000e+00 0.000000e+00
5.063291e-01 0.000000e+00 0.000000e+00
5.379747e-01 0.000000e+00 0.000000e+00
5.696203e-01 0.000000e+00 0.000000e+00
6.012658e-01 0.000000e+00 0.000000e+00
6.329114e-01 0.000000e+00 0.000000e+00
6.645570e-01 0.000000e+00 0.000000e+00
6.962025e-01 0.000000e+00 0.000000e+00
7.278481e-01 0.000000e+00 0.000000e+00
7.594937e-01 0.000000e+00 0.000000e+00
7.911392e-01 0.000000e+00 0.000000e+00
8.227848e-01 0.000000e+00 0.000000e+00
8.544304e-01 0.000000e+00 0.000000e+00
8.860759e-01 0.000000e+00 0.000000e+00
9.177215e-01 0.000000e+00 0.000000e+00
9.493671e-01 0.000000e+00 0.000000e+00
9.810127e-01 0.000000e+00 0.000000e+00
1.012658e+00 0.000000e+00 0.000000e+00
1.044304e+00 0.000000e+00 0.000000e+00
1.075949e+00 0.000000e+00 0.000000e+00
1.107595e+00 0.000000e+00 0.000000e+00
1.139241e+00 0.000000e+00 0.000000e+00
1.170886e+00 0.000000e+00 0.000000e+00
1.202532e+00 0.000000e+00 0.000000e+00
1.234177e+00 0.000000e+00 0.000000e+00
1.265823e+00 0.000000e+00 0.000000e+00
1.297468e+00 0.000000e+00 0.000000e+00
1.329114e+00 0.000000e+00 0.000000e+00
1.360759e+00 0.000000e+00 0.000000e+00
1.392405e+00 0.000000e+00 0.000000e+00
1.424051e+00 0.000000e+00 0.000000e+00
1.455696e+00 0.000000e+00 0.000000e+00
1.487342e+00 0.000000e+00 0.000000e+00
1.518987e+00 0.000000e+00 0.000000e+00
1.550633e+00 0.000000e+00 0.000000e+00
1.582278e+00 0.000000e+00 0.000000e+00
1.613924e+00 0.000000e+00 0.000000e+00
1.645570e+00 0.000000e+00 0.000000e+00
1.677215e+00 0.000000e+00 0.000000e+00
1.708861e+00 0.000000e+00 0.000000e+00
1.740506e+00 0.000000e+00 0.000000e+00
1.772152e+00 0.000000e+00 0.000000e+00
1.803797e+00 0.000000e+00 0.000000e+00
1.835443e+00 0.000000e+00 0.000000e+00
1.867089e+00 0.000000e+00 0.000000e+00
1.898734e+00 0.000000e+00 0.000000e+00
1.930380e+00 0.000000e+00 0.000000e+00
1.962025e+00 0.000000e+00 0.000000e+00
1.993671e+00 0.000000e+00 0.000000e+00
2.025316e+00 0.000000e+00 0.000000e+00
2.056962e+00 0.000000e+00 0.000000e+00
2.088608e+00 0.000000e+00 0.000000e+00
2.120253e+00 0.000000e+00 0.000000e+00
2.151899e+00 0.000000e+00 0.000000e+00
2.183544e+00 0.000000e+00 0.000000e+00
2.215190e+00 0.000000e+00 0.000000e+00
2.246835e+00 0.000000e+00 0.000000e+00
2.278481e+00 0.000000e+00 0.000000e+00
2.310127e+00 0.000000e+00 0.000000e+00
2.341772e+00 0.000000e+00 0.000000e+00
2.373418e+00 0.000000e+00 0.000000e+00
2.405063e+00 0.000000e+00 0.000000e+00
2.436709e+00 0.000000e+00 0.000000e+00
2.468354e+00 0.000000e+00 0.000000e+00
2.500000e+00 0.000000e+00 0.000000e+00
2.531646e+00 0.000000e+00 0.000000e+00
2.563291e+00 0.000000e+00 0.000000e+00
2.594937e+00 0.000000e+00 0.000000e+00
2.626582e+00 0.000000e+00 0.000000e+00
2.658228e+00 0.000000e+00 0.000000e+00
2.689873e+00 0.000000e+00 0.000000e+00
2.721519e+00 0.000000e+00 0.000000e+00
2.753165e+00 0.000000e+00 0.000000e+00
2.784810e+00 0.000000e+00 0.000000e+00
2.816456e+00 0.000000e+00 0.000000e+00
2.848101e+00 0.000000e+00 0.000000e+00
2.879747e+00 0.000000e+00 0.000000e+00
2.911392e+00 0.000000e+00 0.000000e+00
2.943038e+00 0.000000e+00 0.000000e+00
2.974684e+00 0.000000e+00 0.000000e+00
3.006329e+00 0.000000e+00 0.000000e+00
3.037975e+00 0.000000e+00 0.000000e+00
3.069620e+00 0.000000e+00 0.000000e+00
3.101266e+00 0.000000e+00 0.000000e+00
3.132911e+00 0.000000e+00 0.000000e+00
3.164557e+00 0.000000e+00 0.000000e+00
3.196203e+00 0.000000e+00 0.000000e+00
3.227848e+00 0.000000e+00 0.000000e+00
3.259494e+00 0.000000e+00 0.000000e+00
3.291139e+00 0.000000e+00 0.000000e+00
3.322785e+00 0.000000e+00 0.000000e+00
3.354430e+00 0.000000e+00 0.000000e+00
3.386076e+00 0.000000e+00 0.000000e+00
3.417722e+00 0.000000e+00 0.000000e+00
3.449367e+00 0.000000e+00 0.000000e+00
3.481013e+00 0.000000e+00 0.000000e+00
3.512658e+00 0.000000e+00 0.000000e+00
3.544304e+00 0.000000e+00 0.000000e+00
3.575949e+00 0.000000e+00 0.000000e+00
3.607595e+00 0.000000e+00 0.000000e+00
3.639241e+00 0.000000e+00 0.000000e+00
3.670886e+00 0.000000e+00 0.000000e+00
3.702532e+00 0.000000e+00 0.000000e+00
3.734177e+00 0.000000e+00 0.000000e+00
3.765823e+00 0.000000e+00 0.000000e+00
3.797468e+00 0.000000e+00 0.000000e+00
3.829114e+00 0.000000e+00 0.000000e+00
3.860759e+00 0.000000e+00 0.000000e+00
3.892405e+00 0.000000e+00 0.000000e+00
3.924051e+00 0.000000e+00 0.000000e+00
3.955696e+00 0.000000e+00 0.000000e+00
3.987342e+00 0.000000e+00 0.000000e+00
4.018987e+00 0.000000e+00 0.000000e+00
4.050633e+00 0.000000e+00 0.000000e+00
4.082278e+00 0.000000e+00 0.000000e+00
4.113924e+00 0.000000e+00 0.000000e+00
4.145570e+00 0.000000e+00 0.000000e+00
4.177215e+00 0.000000e+00 0.000000e+00
4.208861e+00 0.000000e+00 0.000000e+00
4.240506e+00 0.000000e+00 0.000000e+00
4.272152e+00 0.000000e+00 0.000000e+00
4.303797e+00 0.000000e+00 0.000000e+00
4.335443e+00 0.000000e+00 0.000000e+00
4.367089e+00 0.000000e+00 0.000000e+00
4.398734e+00 0.000000e+00 0.000000e+00
4.430380e+00 0.000000e+00 0.000000e+00
4.462025e+00 0.000000e+00 0.000000e+00
4.493671e+00 0.000000e+00 0.000000e+00
4.525316e+00 0.000000e+00 0.000000e+00
4.556962e+00 0.000000e+00 0.000000e+00
4.588608e+00 0.000000e+00 0.000000e+00
4.620253e+00 0.000000e+00 0.000000e+00
4.651899e+00 0.000000e+00 0.000000e+00
4.683544e+00 0.000000e+00 0.000000e+00
4.715190e+00 0.000000e+00 0.000000e+00
4.746835e+00 0.000000e+00 0.000000e+00
4.778481e+00 0.000000e+00 0.000000e+00
4.810127e+00 0.000000e+00 0.000000e+00
4.841772e+00 0.000000e+00 0.000000e+00
4.873418e+00 0.000000e+00 0.000000e+00
4.905063e+00 0.000000e+00 0.000000e+00
4.936709e+00 0.000000e+00 0.000000e+00
4.968354e+00 0.000000e+00 0.000000e+00
5.000000e+00 0.000000e+00 0.000000e+00
0.000000e+00 3.333333e-02 0.000000e+00
3.164557e-02 3.333333e-02 0.000000e+00
6.329114e-02 3.333333e-02 0.000000e+00
9.493671e-02 3.333333e-02 0.000000e+00
1.265823e-01 3.333333e-02 0.000000e+00
1.582278e-01 3.333333e-02 0.000000e+00
1.898734e-01 3.333333e-02 0.000000e+00
2.215190e-01 3.333333e-02 0.000000e+00
2.531646e-01 3.333333e-02 0.000000e+00
2.848101e-01 3.333333e-02 0.000000e+00
3.164557e-01 3.333333e-02 0.000000e+00
3.481013e-01 3.333333e-02 0.000000e+00
3.797468e-01 3.333333e-02 0.000000e+00
4.113924e-01 3.333333e-02 0.000000e+00
4.430380e-01 3.333333e-02 0.000000e+00
4.746835e-01 3.333333e-02 0.000000e+00
5.063291e-01 3.333333e-02 0.000000e+00
5.379747e-01 3.333333e-02 0.000000e+00
5.696203e-01 3.333333e-02 0.000000e+00
6.012658e-01 3.333333e-02 0.000000e+00
6.329114e-01 3.333333e-02 0.000000e+00
6.645570e-01 3.333333e-02 0.000000e+00
6.962025e-01 3.333333e-02 0.000000e+00
7.278481e-01 3.333333e-02 0.000000e+00
7.594937e-01 3.333333e-02 0.000000e+00
7.911392e-01 3.333333e-02 0.000000e+00
8.227848e-01 3.333333e-02 0.000000e+00
8.544304e-01 3.333333e-02 0.000000e+00
8.860759e-01 3.333333e-02 0.000000e+00
9.177215e-01 3.333333e-02 0.000000e+00
9.493671e-01 3.333333e-02 0.000000e+00
9.810127e-01 3.333333e-02 0.000000e+00
1.012658e+00 3.333333e-02 0.000000e+00
1.044304e+00 3.333333e-02 0.000000e+00
1.075949e+00 3.333333e-02 0.000000e+00
1.107595e+00 3.333333e-02 0.000000e+00
1.139241e+00 3.333333e-02 0.000000e+00
1.170886e+00 3.333333e-02 0.000000e+00
1.202532e+00 3.333333e-02 0.000000e+00
1.234177e+00 3.333333e-02 0.000000e+00
1.265823e+00 3.333333e-02 0.000000e+00
1.297468e+00 3.333333e-02 0.000000e+00
1.329114e+00 3.333333e-02 0.000000e+00
1.360759e+00 3.333333e-02 0.000000e+00
1.392405e+00 3.333333e-02 0.000000e+00
1.424051e+00 3.333333e-02 0.000000e+00
1.455696e+00 3.333333e-02 0.000000e+00
1.487342e+00 3.333333e-02 0.000000e+00
1.518987e+00 3.333333e-02 0.000000e+00
1.550633e+00 3.333333e-02 0.000000e+00
1.582278e+00 3.333333e-02 0.000000e+00
1.613924e+00 3.333333e-02 0.000000e+00
1.645570e+00 3.333333e-02 0.000000e+00
1.677215e+00 3.333333e-02 0.000000e+00
1.708861e+00 3.333333e-02 0.000000e+00
1.740506e+00 3.333333e-02 0.000000e+00
1.772152e+00 3.333333e-02 0.000000e+00
1.803797e+00 3.333333e-02 0.000000e+00
1.835443e+00 3.333333e-02 0.000000e+00
1.867089e+00 3.333333e-02 0.000000e+00
1.898734e+00 3.333333e-02 0.000000e+00
1.930380e+00 3.333333e-02 0.000000e+00
1.962025e+00 3.333333e-02 0.000000e+00
1.993671e+00 3.333333e-02 0.000000e+00
2.025316e+00 3.333333e-02 0.000000e+00
2.056962e+00 3.333333e-02 0.000000e+00
2.088608e+00 3.333333e-02 0.000000e+00
2.120253e+00 3.333333e-02 0.000000e+00
2.151899e+00 3.333333e-02 0.000000e+00
2.183544e+00 3.333333e-02 0.000000e+00
2.215190e+00 3.333333e-02 0.000000e+00
2.246835e+00 3.333333e-02 0.000000e+00
2.278481e+00 3.333333e-02 0.000000e+00
2.310127e+00 3.333333e-02 0.000000e+00
2.341772e+00 3.333333e-02 0.000000e+00
2.373418e+00 3.333333e-02 0.000000e+00
2.405063e+00 3.333333e-02 0.000000e+00
2.436709e+00 3.333333e-02 0.000000e+00
2.468354e+00 3.333333e-02 0.000000e+00
2.500000e+00 3.333333e-02 0.000000e+00
2.531646e+00 3.333333e-02 0.000000e+00
2.563291e+00 3.333333e-02 0.000000e+00
2.594937e+00 3.333333e-02 0.000000e+00
2.626582e+00 3.333333e-02 0.000000e+00
2.658228e+00 3.333333e-02 0.000000e+00
2.689873e+00 3.333333e-02 0.000000e+00
2.721519e+00 3.333333e-02 0.000000e+00
2.753165e+00 3.333333e-02 0.000000e+00
2.784810e+00 3.333333e-02 0.000000e+00
2.816456e+00 3.333333e-02 0.000000e+00
2.848101e+00 3.333333e-02 0.000000e+00
2.879747e+00 3.333333e-02 0.000000e+00
[...]
<PointData>
<DataArray Name="Velocity" type="Float64" format="ascii" NumberOfComponents="3">
0.000000e+00 0.000000e+00 0
0.000000e+00 0.000000e+00 0
0.000000e+00 0.000000e+00 0
0.000000e+00 0.000000e+00 0
0.000000e+00 0.000000e+00 0
0.000000e+00 0.000000e+00 0
0.000000e+00 0.000000e+00 0
0.000000e+00 0.000000e+00 0
0.000000e+00 0.000000e+00 0
0.000000e+00 0.000000e+00 0
0.000000e+00 0.000000e+00 0
0.000000e+00 0.000000e+00 0
0.000000e+00 0.000000e+00 0
0.000000e+00 0.000000e+00 0
0.000000e+00 0.000000e+00 0
0.000000e+00 0.000000e+00 0
0.000000e+00 0.000000e+00 0
0.000000e+00 0.000000e+00 0
0.000000e+00 0.000000e+00 0
4.302530e-17 0.000000e+00 0
0.000000e+00 0.000000e+00 0
0.000000e+00 0.000000e+00 0
0.000000e+00 0.000000e+00 0
8.416246e-18 0.000000e+00 0
0.000000e+00 0.000000e+00 0
0.000000e+00 0.000000e+00 0
0.000000e+00 0.000000e+00 0
-5.495890e-17 0.000000e+00 0
0.000000e+00 0.000000e+00 0
0.000000e+00 0.000000e+00 0
0.000000e+00 0.000000e+00 0
8.911510e-18 0.000000e+00 0
0.000000e+00 0.000000e+00 0
0.000000e+00 0.000000e+00 0
0.000000e+00 0.000000e+00 0
0.000000e+00 0.000000e+00 0
0.000000e+00 0.000000e+00 0
0.000000e+00 0.000000e+00 0
8.674166e-18 0.000000e+00 0
0.000000e+00 0.000000e+00 0
0.000000e+00 0.000000e+00 0
0.000000e+00 0.000000e+00 0
0.000000e+00 0.000000e+00 0
0.000000e+00 0.000000e+00 0
0.000000e+00 0.000000e+00 0
0.000000e+00 0.000000e+00 0
1.110877e-17 0.000000e+00 0
0.000000e+00 0.000000e+00 0
0.000000e+00 0.000000e+00 0
0.000000e+00 0.000000e+00 0
0.000000e+00 0.000000e+00 0
0.000000e+00 0.000000e+00 0
0.000000e+00 0.000000e+00 0
0.000000e+00 0.000000e+00 0
-5.980308e-18 0.000000e+00 0
0.000000e+00 0.000000e+00 0
0.000000e+00 0.000000e+00 0
0.000000e+00 0.000000e+00 0
0.000000e+00 0.000000e+00 0
0.000000e+00 0.000000e+00 0
0.000000e+00 0.000000e+00 0
0.000000e+00 0.000000e+00 0
-3.492627e-18 0.000000e+00 0
0.000000e+00 0.000000e+00 0
0.000000e+00 0.000000e+00 0
0.000000e+00 0.000000e+00 0
0.000000e+00 0.000000e+00 0
0.000000e+00 0.000000e+00 0
0.000000e+00 0.000000e+00 0
0.000000e+00 0.000000e+00 0
0.000000e+00 0.000000e+00 0
0.000000e+00 0.000000e+00 0
0.000000e+00 0.000000e+00 0
0.000000e+00 0.000000e+00 0
0.000000e+00 0.000000e+00 0
0.000000e+00 0.000000e+00 0
0.000000e+00 0.000000e+00 0
0.000000e+00 0.000000e+00 0
0.000000e+00 0.000000e+00 0
0.000000e+00 0.000000e+00 0
0.000000e+00 0.000000e+00 0
0.000000e+00 0.000000e+00 0
0.000000e+00 0.000000e+00 0
0.000000e+00 0.000000e+00 0
0.000000e+00 0.000000e+00 0
0.000000e+00 0.000000e+00 0
0.000000e+00 0.000000e+00 0
0.000000e+00 0.000000e+00 0
0.000000e+00 0.000000e+00 0
0.000000e+00 0.000000e+00 0
0.000000e+00 0.000000e+00 0
0.000000e+00 0.000000e+00 0
0.000000e+00 0.000000e+00 0
0.000000e+00 0.000000e+00 0
0.000000e+00 0.000000e+00 0
0.000000e+00 0.000000e+00 0
0.000000e+00 0.000000e+00 0
0.000000e+00 0.000000e+00 0
0.000000e+00 0.000000e+00 0
0.000000e+00 0.000000e+00 0
0.000000e+00 0.000000e+00 0
0.000000e+00 0.000000e+00 0
0.000000e+00 0.000000e+00 0
0.000000e+00 0.000000e+00 0
0.000000e+00 0.000000e+00 0
0.000000e+00 0.000000e+00 0
0.000000e+00 0.000000e+00 0
0.000000e+00 0.000000e+00 0
0.000000e+00 0.000000e+00 0
0.000000e+00 0.000000e+00 0
0.000000e+00 0.000000e+00 0
0.000000e+00 0.000000e+00 0
0.000000e+00 0.000000e+00 0
0.000000e+00 0.000000e+00 0
0.000000e+00 0.000000e+00 0
0.000000e+00 0.000000e+00 0
0.000000e+00 0.000000e+00 0
0.000000e+00 0.000000e+00 0
0.000000e+00 0.000000e+00 0
0.000000e+00 0.000000e+00 0
0.000000e+00 0.000000e+00 0
0.000000e+00 0.000000e+00 0
0.000000e+00 0.000000e+00 0
0.000000e+00 0.000000e+00 0
0.000000e+00 0.000000e+00 0
0.000000e+00 0.000000e+00 0
0.000000e+00 0.000000e+00 0
0.000000e+00 0.000000e+00 0
0.000000e+00 0.000000e+00 0
0.000000e+00 0.000000e+00 0
0.000000e+00 0.000000e+00 0
0.000000e+00 0.000000e+00 0
0.000000e+00 0.000000e+00 0
0.000000e+00 0.000000e+00 0
0.000000e+00 0.000000e+00 0
0.000000e+00 0.000000e+00 0
0.000000e+00 0.000000e+00 0
0.000000e+00 0.000000e+00 0
0.000000e+00 0.000000e+00 0
0.000000e+00 0.000000e+00 0
0.000000e+00 0.000000e+00 0
0.000000e+00 0.000000e+00 0
0.000000e+00 0.000000e+00 0
0.000000e+00 0.000000e+00 0
0.000000e+00 0.000000e+00 0
0.000000e+00 0.000000e+00 0
0.000000e+00 0.000000e+00 0
0.000000e+00 0.000000e+00 0
0.000000e+00 0.000000e+00 0
0.000000e+00 0.000000e+00 0
0.000000e+00 0.000000e+00 0
0.000000e+00 0.000000e+00 0
0.000000e+00 0.000000e+00 0
0.000000e+00 0.000000e+00 0
0.000000e+00 0.000000e+00 0
0.000000e+00 0.000000e+00 0
0.000000e+00 0.000000e+00 0
0.000000e+00 0.000000e+00 0
0.000000e+00 0.000000e+00 0
1.738188e+00 -4.592062e-05 0
1.738188e+00 -4.911403e-05 0
1.738228e+00 -4.409593e-05 0
1.738254e+00 -2.058077e-05 0
1.738254e+00 1.417416e-05 0
1.738218e+00 5.884407e-05 0
1.738135e+00 1.159913e-04 0
1.737990e+00 1.874256e-04 0
1.737769e+00 2.750165e-04 0
1.737457e+00 3.809451e-04 0
1.737034e+00 5.076265e-04 0
1.736480e+00 6.576823e-04 0
1.735772e+00 8.339910e-04 0
1.734883e+00 1.039719e-03 0
1.733782e+00 1.278553e-03 0
1.732437e+00 1.554771e-03 0
1.730810e+00 1.873264e-03 0
1.728858e+00 2.239776e-03 0
1.726532e+00 2.660997e-03 0
1.723777e+00 3.144751e-03 0
1.720530e+00 3.700388e-03 0
1.716717e+00 4.339119e-03 0
1.712252e+00 5.074367e-03 0
1.707037e+00 5.921929e-03 0
1.700955e+00 6.899523e-03 0
1.693873e+00 8.025185e-03 0
1.685639e+00 9.313145e-03 0
1.676086e+00 1.076476e-02 0
1.665052e+00 1.235084e-02 0
1.652415e+00 1.398091e-02 0
1.638172e+00 1.546024e-02 0
1.622576e+00 1.645733e-02 0
1.606310e+00 1.655280e-02 0
1.590567e+00 1.547561e-02 0
1.576666e+00 1.340898e-02 0
1.565286e+00 1.087846e-02 0
1.556472e+00 8.366589e-03 0
1.549923e+00 6.153053e-03 0
1.545222e+00 4.337174e-03 0
1.541965e+00 2.910560e-03 0
1.539807e+00 1.815460e-03 0
1.538476e+00 9.748114e-04 0
1.537771e+00 2.594452e-04 0
1.537536e+00 -3.849697e-04 0
1.537674e+00 -9.036509e-04 0
1.538090e+00 -1.281075e-03 0
1.538697e+00 -1.531836e-03 0
1.539422e+00 -1.674278e-03 0
1.540205e+00 -1.727005e-03 0
1.540996e+00 -1.707249e-03 0
1.541756e+00 -1.630248e-03 0
1.542453e+00 -1.509131e-03 0
1.543065e+00 -1.355025e-03 0
1.543573e+00 -1.177215e-03 0
1.543965e+00 -9.832470e-04 0
1.544234e+00 -7.785947e-04 0
1.544374e+00 -5.669161e-04 0
1.544394e+00 -3.538950e-04 0
1.544308e+00 -1.578678e-04 0
1.544126e+00 -8.807160e-06 0
1.543856e+00 9.623023e-05 0
1.543506e+00 1.828087e-04 0
1.543083e+00 2.599790e-04 0
1.542593e+00 3.308526e-04 0
1.542039e+00 3.967576e-04 0
1.541426e+00 4.583939e-04 0
1.540758e+00 5.161954e-04 0
1.540037e+00 5.704603e-04 0
1.539267e+00 6.214085e-04 0
1.538451e+00 6.692168e-04 0
1.537591e+00 7.140413e-04 0
1.536691e+00 7.560311e-04 0
1.535752e+00 7.953328e-04 0
1.534777e+00 8.320911e-04 0
1.533769e+00 8.664457e-04 0
1.532728e+00 8.985276e-04 0
1.531659e+00 9.284522e-04 0
1.530562e+00 9.563148e-04 0
1.529439e+00 9.821945e-04 0
1.528292e+00 1.006169e-03 0
1.527123e+00 1.028334e-03 0
1.525933e+00 1.048809e-03 0
1.524723e+00 1.067727e-03 0
1.523496e+00 1.085195e-03 0
1.522253e+00 1.101275e-03 0
1.520994e+00 1.115990e-03 0
1.519722e+00 1.129357e-03 0
1.518436e+00 1.141431e-03 0
1.517139e+00 1.152317e-03 0
1.515830e+00 1.162141e-03 0
1.514513e+00 1.171002e-03 0
1.513186e+00 1.178946e-03 0
1.511851e+00 1.185974e-03 0
1.510510e+00 1.192080e-03 0
1.509162e+00 1.197290e-03 0
1.507808e+00 1.201668e-03 0
1.506449e+00 1.205300e-03 0
1.505086e+00 1.208259e-03 0
1.503720e+00 1.210590e-03 0
1.502351e+00 1.212313e-03 0
1.500979e+00 1.213436e-03 0
1.499606e+00 1.213966e-03 0
1.498231e+00 1.213924e-03 0
1.496855e+00 1.213344e-03 0
1.495479e+00 1.212266e-03 0
1.494103e+00 1.210732e-03 0
1.492728e+00 1.208777e-03 0
1.491353e+00 1.206425e-03 0
1.489980e+00 1.203687e-03 0
1.488608e+00 1.200570e-03 0
1.487238e+00 1.197078e-03 0
1.485871e+00 1.193222e-03 0
1.484506e+00 1.189017e-03 0
1.483144e+00 1.184489e-03 0
1.481786e+00 1.179663e-03 0
1.480431e+00 1.174560e-03 0
1.479080e+00 1.169193e-03 0
1.477733e+00 1.163564e-03 0
1.476390e+00 1.157671e-03 0
1.475052e+00 1.151516e-03 0
1.473718e+00 1.145105e-03 0
1.472390e+00 1.138453e-03 0
1.471067e+00 1.131572e-03 0
1.469749e+00 1.124472e-03 0
1.468437e+00 1.117159e-03 0
1.467131e+00 1.109630e-03 0
1.465831e+00 1.101887e-03 0
1.464538e+00 1.093929e-03 0
1.463251e+00 1.085758e-03 0
1.461971e+00 1.077378e-03 0
1.460698e+00 1.068790e-03 0
1.459431e+00 1.059997e-03 0
1.458173e+00 1.050996e-03 0
1.456922e+00 1.041788e-03 0
1.455678e+00 1.032370e-03 0
1.454443e+00 1.022740e-03 0
1.453216e+00 1.012898e-03 0
1.451997e+00 1.002842e-03 0
1.450787e+00 9.925684e-04 0
1.449586e+00 9.820727e-04 0
1.448394e+00 9.713476e-04 0
1.447211e+00 9.603831e-04 0
1.446038e+00 9.491679e-04 0
1.444874e+00 9.376860e-04 0
1.443721e+00 9.259152e-04 0
1.442578e+00 9.138235e-04 0
1.441446e+00 9.013635e-04 0
1.440325e+00 8.884667e-04 0
1.439215e+00 8.750321e-04 0
1.438118e+00 8.609074e-04 0
1.437033e+00 8.458570e-04 0
1.435963e+00 8.295080e-04 0
1.434907e+00 8.112438e-04 0
1.433870e+00 7.899558e-04 0
1.432852e+00 7.632373e-04 0
1.431861e+00 7.266020e-04 0
1.430906e+00 6.372777e-04 0
1.429999e+00 7.309520e-04 0
1.429999e+00 8.924536e-04 0
2.709660e+00 -9.075502e-05 0
2.709660e+00 -8.801042e-05 0
2.709695e+00 -6.973694e-05 0
2.709717e+00 -2.736190e-05 0
2.709719e+00 3.768998e-05 0
2.709690e+00 1.263898e-04 0
2.709619e+00 2.410235e-04 0
2.709494e+00 3.846130e-04 0
2.709302e+00 5.608190e-04 0
2.709030e+00 7.738385e-04 0
2.708660e+00 1.028358e-03 0
2.708174e+00 1.329613e-03 0
2.707550e+00 1.683391e-03 0
2.706767e+00 2.096275e-03 0
2.705796e+00 2.575779e-03 0
2.704608e+00 3.130391e-03 0
2.703170e+00 3.769947e-03 0
2.701444e+00 4.505837e-03 0
2.699386e+00 5.351317e-03 0
2.696949e+00 6.322183e-03 0
2.694076e+00 7.437339e-03 0
2.690701e+00 8.719494e-03 0
2.686751e+00 1.019598e-02 0
2.682138e+00 1.189904e-02 0
2.676756e+00 1.386537e-02 0
2.670484e+00 1.613347e-02 0
2.663174e+00 1.873644e-02 0
2.654652e+00 2.168524e-02 0
2.644722e+00 2.493368e-02 0
2.633177e+00 2.831309e-02 0
2.619858e+00 3.143008e-02 0
2.604811e+00 3.356184e-02 0
2.588628e+00 3.371649e-02 0
2.572914e+00 3.122415e-02 0
2.559757e+00 2.662906e-02 0
2.549694e+00 2.127199e-02 0
2.542358e+00 1.618293e-02 0
2.537143e+00 1.184947e-02 0
2.533498e+00 8.381728e-03 0
2.530996e+00 5.704003e-03 0
2.529321e+00 3.675027e-03 0
2.528243e+00 2.144608e-03 0
2.527586e+00 9.902838e-04 0
2.527163e+00 1.019338e-04 0
2.526866e+00 -5.829473e-04 0
2.526649e+00 -1.076620e-03 0
2.526479e+00 -1.403084e-03 0
2.526334e+00 -1.588563e-03 0
2.526196e+00 -1.657955e-03 0
2.526051e+00 -1.633588e-03 0
2.525890e+00 -1.534919e-03 0
2.525703e+00 -1.378640e-03 0
2.525483e+00 -1.178943e-03 0
2.525227e+00 -9.478943e-04 0
2.524930e+00 -6.958718e-04 0
2.524592e+00 -4.311745e-04 0
2.524220e+00 -1.690518e-04 0
2.523819e+00 7.017219e-05 0
2.523391e+00 2.826283e-04 0
2.522928e+00 4.761291e-04 0
2.522407e+00 6.529737e-04 0
2.521823e+00 8.139649e-04 0
2.521179e+00 9.621651e-04 0
2.520476e+00 1.099927e-03 0
2.519718e+00 1.228762e-03 0
2.518908e+00 1.349657e-03 0
2.518050e+00 1.463294e-03 0
2.517145e+00 1.570180e-03 0
2.516196e+00 1.670713e-03 0
2.515206e+00 1.765231e-03 0
2.514177e+00 1.854042e-03 0
2.513112e+00 1.937435e-03 0
2.512012e+00 2.015684e-03 0
2.510880e+00 2.089057e-03 0
2.509717e+00 2.157806e-03 0
2.508525e+00 2.222165e-03 0
2.507307e+00 2.282348e-03 0
2.506063e+00 2.338544e-03 0
2.504795e+00 2.390927e-03 0
2.503505e+00 2.439676e-03 0
2.502194e+00 2.484990e-03 0
2.500864e+00 2.527080e-03 0
2.499516e+00 2.566148e-03 0
2.498151e+00 2.602357e-03 0
2.496770e+00 2.635820e-03 0
2.495374e+00 2.666626e-03 0
2.493965e+00 2.694879e-03 0
2.492543e+00 2.720724e-03 0
2.491109e+00 2.744341e-03 0
2.489664e+00 2.765899e-03 0
2.488210e+00 2.785521e-03 0
2.486746e+00 2.803279e-03 0
2.485274e+00 2.819218e-03 0
2.483794e+00 2.833396e-03 0
2.482306e+00 2.845907e-03 0
2.480813e+00 2.856868e-03 0
2.479314e+00 2.866397e-03 0
2.477809e+00 2.874587e-03 0
2.476300e+00 2.881503e-03 0
2.474787e+00 2.887191e-03 0
2.473270e+00 2.891690e-03 0
2.471750e+00 2.895046e-03 0
2.470228e+00 2.897314e-03 0
2.468703e+00 2.898558e-03 0
2.467176e+00 2.898844e-03 0
2.465648e+00 2.898233e-03 0
2.464118e+00 2.896774e-03 0
2.462588e+00 2.894505e-03 0
2.461058e+00 2.891453e-03 0
2.459528e+00 2.887639e-03 0
2.457997e+00 2.883088e-03 0
2.456468e+00 2.877831e-03 0
2.454939e+00 2.871904e-03 0
2.453411e+00 2.865345e-03 0
2.451884e+00 2.858191e-03 0
2.450360e+00 2.850468e-03 0
2.448837e+00 2.842192e-03 0
2.447316e+00 2.833370e-03 0
2.445797e+00 2.824013e-03 0
2.444282e+00 2.814132e-03 0
2.442768e+00 2.803748e-03 0
2.441258e+00 2.792880e-03 0
2.439751e+00 2.781546e-03 0
2.438248e+00 2.769756e-03 0
2.436748e+00 2.757515e-03 0
2.435252e+00 2.744825e-03 0
2.433760e+00 2.731688e-03 0
2.432272e+00 2.718108e-03 0
2.430789e+00 2.704092e-03 0
2.429310e+00 2.689641e-03 0
2.427836e+00 2.674758e-03 0
2.426367e+00 2.659442e-03 0
2.424904e+00 2.643693e-03 0
2.423445e+00 2.627507e-03 0
2.421993e+00 2.610881e-03 0
2.420546e+00 2.593812e-03 0
2.419105e+00 2.576296e-03 0
2.417670e+00 2.558329e-03 0
2.416242e+00 2.539902e-03 0
2.414820e+00 2.521005e-03 0
2.413405e+00 2.501623e-03 0
2.411997e+00 2.481738e-03 0
2.410597e+00 2.461327e-03 0
2.409204e+00 2.440358e-03 0
2.407819e+00 2.418786e-03 0
2.406441e+00 2.396544e-03 0
2.405073e+00 2.373540e-03 0
2.403713e+00 2.349638e-03 0
2.402362e+00 2.324637e-03 0
2.401021e+00 2.298237e-03 0
2.399689e+00 2.269982e-03 0
2.398369e+00 2.239161e-03 0
2.397061e+00 2.204627e-03 0
2.395767e+00 2.164444e-03 0
2.394487e+00 2.115222e-03 0
2.393224e+00 2.050723e-03 0
2.391978e+00 1.961316e-03 0
2.390714e+00 1.944590e-03 0
2.390714e+00 1.980183e-03 0
3.224114e+00 -1.376623e-04 0
3.224114e+00 -1.311613e-04 0
3.224155e+00 -1.033857e-04 0
3.224188e+00 -4.574397e-05 0
3.224206e+00 4.285633e-05 0
3.224202e+00 1.644834e-04 0
3.224168e+00 3.222519e-04 0
3.224097e+00 5.202985e-04 0
3.223978e+00 7.636186e-04 0
3.223802e+00 1.057958e-03 0
3.223556e+00 1.409825e-03 0
3.223226e+00 1.826454e-03 0
3.222797e+00 2.316010e-03 0
3.222252e+00 2.887719e-03 0
3.221570e+00 3.551886e-03 0
3.220729e+00 4.320265e-03 0
3.219706e+00 5.206298e-03 0
3.218473e+00 6.225410e-03 0
3.216999e+00 7.395799e-03 0
3.215250e+00 8.739079e-03 0
3.213185e+00 1.028114e-02 0
3.210759e+00 1.205347e-02 0
3.207921e+00 1.409432e-02 0
3.204608e+00 1.644988e-02 0
3.200746e+00 1.917507e-02 0
3.196239e+00 2.233280e-02 0
3.190965e+00 2.598937e-02 0
3.184753e+00 3.019993e-02 0
3.177359e+00 3.497086e-02 0
3.168415e+00 4.017074e-02 0
3.157396e+00 4.533922e-02 0
3.143698e+00 4.935319e-02 0
3.127236e+00 5.015088e-02 0
3.110523e+00 4.588723e-02 0
3.098508e+00 3.786786e-02 0
3.090938e+00 2.920564e-02 0
3.086354e+00 2.158763e-02 0
3.083575e+00 1.548478e-02 0
3.081870e+00 1.081116e-02 0
3.080818e+00 7.310456e-03 0
3.080176e+00 4.716101e-03 0
3.079796e+00 2.802603e-03 0
3.079577e+00 1.396515e-03 0
3.079449e+00 3.732699e-04 0
3.079341e+00 -3.617890e-04 0
3.079224e+00 -8.732261e-04 0
3.079084e+00 -1.200099e-03 0
3.078918e+00 -1.375945e-03 0
3.078723e+00 -1.429400e-03 0
3.078501e+00 -1.384825e-03 0
3.078252e+00 -1.262883e-03 0
3.077976e+00 -1.081048e-03 0
3.077675e+00 -8.540443e-04 0
3.077348e+00 -5.944955e-04 0
3.076997e+00 -3.141379e-04 0
3.076627e+00 -3.023301e-05 0
3.076238e+00 2.470918e-04 0
3.075823e+00 5.188290e-04 0
3.075372e+00 7.807252e-04 0
3.074878e+00 1.028152e-03 0
3.074341e+00 1.260082e-03 0
3.073758e+00 1.476690e-03 0
3.073130e+00 1.679257e-03 0
3.072459e+00 1.869199e-03 0
3.071746e+00 2.047705e-03 0
3.070993e+00 2.215711e-03 0
3.070202e+00 2.373950e-03 0
3.069376e+00 2.523014e-03 0
3.068515e+00 2.663403e-03 0
3.067623e+00 2.795560e-03 0
3.066700e+00 2.919899e-03 0
3.065748e+00 3.036809e-03 0
3.064769e+00 3.146664e-03 0
3.063765e+00 3.249820e-03 0
3.062737e+00 3.346615e-03 0
3.061686e+00 3.437362e-03 0
3.060614e+00 3.522349e-03 0
3.059522e+00 3.601838e-03 0
3.058411e+00 3.676083e-03 0
3.057282e+00 3.745350e-03 0
3.056137e+00 3.809917e-03 0
3.054976e+00 3.870062e-03 0
3.053801e+00 3.926031e-03 0
3.052612e+00 3.978023e-03 0
3.051410e+00 4.026194e-03 0
3.050196e+00 4.070699e-03 0
3.048971e+00 4.111721e-03 0
3.047735e+00 4.149479e-03 0
3.046490e+00 4.184197e-03 0
3.045236e+00 4.216063e-03 0
3.043974e+00 4.245212e-03 0
3.042703e+00 4.271741e-03 0
3.041426e+00 4.295744e-03 0
3.040142e+00 4.317341e-03 0
3.038851e+00 4.336676e-03 0
3.037555e+00 4.353901e-03 0
3.036254e+00 4.369149e-03 0
3.034949e+00 4.382526e-03 0
3.033639e+00 4.394113e-03 0
3.032325e+00 4.403979e-03 0
3.031008e+00 4.412195e-03 0
3.029687e+00 4.418837e-03 0
3.028364e+00 4.423988e-03 0
3.027038e+00 4.427734e-03 0
3.025710e+00 4.430159e-03 0
3.024380e+00 4.431335e-03 0
3.023049e+00 4.431323e-03 0
3.021716e+00 4.430168e-03 0
3.020382e+00 4.427910e-03 0
3.019048e+00 4.424588e-03 0
3.017713e+00 4.420244e-03 0
3.016378e+00 4.414924e-03 0
3.015042e+00 4.408679e-03 0
3.013707e+00 4.401558e-03 0
3.012372e+00 4.393601e-03 0
3.011038e+00 4.384835e-03 0
3.009704e+00 4.375280e-03 0
3.008371e+00 4.364950e-03 0
3.007040e+00 4.353866e-03 0
3.005709e+00 4.342053e-03 0
3.004380e+00 4.329537e-03 0
3.003053e+00 4.316342e-03 0
3.001727e+00 4.302484e-03 0
3.000404e+00 4.287973e-03 0
2.999082e+00 4.272816e-03 0
2.997763e+00 4.257018e-03 0
2.996446e+00 4.240585e-03 0
2.995131e+00 4.223524e-03 0
2.993820e+00 4.205841e-03 0
2.992511e+00 4.187538e-03 0
2.991205e+00 4.168617e-03 0
2.989903e+00 4.149077e-03 0
2.988604e+00 4.128915e-03 0
2.987308e+00 4.108127e-03 0
2.986016e+00 4.086709e-03 0
2.984728e+00 4.064656e-03 0
2.983443e+00 4.041963e-03 0
2.982163e+00 4.018622e-03 0
2.980887e+00 3.994619e-03 0
2.979616e+00 3.969941e-03 0
2.978349e+00 3.944568e-03 0
2.977088e+00 3.918477e-03 0
2.975831e+00 3.891638e-03 0
2.974579e+00 3.864009e-03 0
2.973333e+00 3.835529e-03 0
2.972092e+00 3.806116e-03 0
2.970857e+00 3.775652e-03 0
2.969628e+00 3.743964e-03 0
2.968405e+00 3.710803e-03 0
2.967188e+00 3.675804e-03 0
2.965979e+00 3.638425e-03 0
2.964776e+00 3.597858e-03 0
2.963581e+00 3.552883e-03 0
2.962393e+00 3.501666e-03 0
2.961211e+00 3.441549e-03 0
2.960035e+00 3.369182e-03 0
2.958859e+00 3.281390e-03 0
2.957672e+00 3.197928e-03 0
2.957672e+00 3.162563e-03 0
3.501913e+00 -1.898269e-04 0
3.501913e+00 -1.812736e-04 0
3.501964e+00 -1.476558e-04 0
3.502008e+00 -8.005363e-05 0
3.502044e+00 2.346875e-05 0
3.502067e+00 1.657793e-04 0
3.502072e+00 3.510001e-04 0
3.502055e+00 5.841061e-04 0
3.502008e+00 8.710859e-04 0
3.501925e+00 1.218868e-03 0
3.501798e+00 1.635251e-03 0
3.501616e+00 2.129026e-03 0
3.501370e+00 2.710065e-03 0
3.501046e+00 3.389283e-03 0
3.500631e+00 4.178928e-03 0
3.500111e+00 5.092770e-03 0
3.499468e+00 6.146304e-03 0
3.498685e+00 7.357480e-03 0
3.497742e+00 8.747264e-03 0
3.496618e+00 1.034042e-02 0
3.495287e+00 1.216690e-02 0
3.493725e+00 1.426330e-02 0
3.491901e+00 1.667470e-02 0
3.489781e+00 1.945725e-02 0
3.487320e+00 2.268145e-02 0
3.484461e+00 2.643640e-02 0
3.481119e+00 3.083483e-02 0
3.477153e+00 3.601690e-02 0
3.472310e+00 4.214329e-02 0
3.466099e+00 4.934002e-02 0
3.457524e+00 5.746542e-02 0
3.444668e+00 6.533017e-02 0
3.424570e+00 6.866100e-02 0
3.400909e+00 6.148536e-02 0
3.389732e+00 4.725833e-02 0
3.385733e+00 3.407429e-02 0
3.384780e+00 2.393878e-02 0
3.384938e+00 1.657243e-02 0
3.385425e+00 1.128614e-02 0
3.385952e+00 7.488408e-03 0
3.386425e+00 4.750699e-03 0
3.386817e+00 2.775319e-03 0
3.387122e+00 1.356230e-03 0
3.387339e+00 3.504238e-04 0
3.387474e+00 -3.455350e-04 0
3.387527e+00 -8.058003e-04 0
3.387504e+00 -1.080865e-03 0
3.387415e+00 -1.208677e-03 0
3.387270e+00 -1.219195e-03 0
3.387075e+00 -1.136784e-03 0
3.386840e+00 -9.816026e-04 0
3.386570e+00 -7.704313e-04 0
3.386270e+00 -5.169315e-04 0
3.385944e+00 -2.340087e-04 0
3.385596e+00 6.365567e-05 0
3.385228e+00 3.684858e-04 0
3.384834e+00 6.767858e-04 0
3.384411e+00 9.818594e-04 0
3.383960e+00 1.278467e-03 0
3.383478e+00 1.562862e-03 0
3.382966e+00 1.833195e-03 0
3.382421e+00 2.088887e-03 0
3.381844e+00 2.330243e-03 0
3.381235e+00 2.557958e-03 0
3.380595e+00 2.772817e-03 0
3.379926e+00 2.975564e-03 0
3.379228e+00 3.166860e-03 0
3.378504e+00 3.347296e-03 0
3.377754e+00 3.517406e-03 0
3.376980e+00 3.677690e-03 0
3.376183e+00 3.828622e-03 0
3.375365e+00 3.970661e-03 0