<?xml version="1.0"?>
<VTKFile type="StructuredGrid">
<StructuredGrid WholeExtent="0 158 0 30 0 0 ">
<Piece Extent="0 158 0 30 0 0 ">
<Points>
<DataArray type="Float64" format="ascii" NumberOfComponents="3">
0.000000e+00 0.000000e+00 0.000000e+00
3.164557e-02 0.000000e+00 0.000000e+00
6.329114e-02 0.000000e+00 0.000000e+00
9.493671e-02 0.000000e+00 0.000000e+00
1.265823e-01 0.000000e+00 0.000000e+00
1.582278e-01 0.000000e+00 0.000000e+00
1.898734e-01 0.000000e+00 0.000000e+00
2.215190e-01 0.000000e+00 0.000000e+00
2.531646e-01 0.000000e+00 0.000000e+00
2.848101e-01 0.000000e+00 0.000000e+00
3.164557e-01 0.000000e+00 0.000000e+00
3.481013e-01 0.000000e+00 0.000000e+00
3.797468e-01 0.000000e+00 0.000000e+00
4.113924e-01 0.000000e+00 0.000000e+00
4.430380e-01 0.000000e+00 0.000000e+00
4.746835e-01 0.000000e+00 0.000000e+00
5.063291e-01 0.000000e+00 0.000000e+00
5.379747e-01 0.000000e+00 0.000000e+00
5.696203e-01 0.000000e+00 0.000000e+00
6.012658e-01 0.000000e+00 0.000000e+00
6.329114e-01 0.000000e+00 0.000000e+00
6.645570e-01 0.000000e+00 0.000000e+00
6.962025e-01 0.000000e+00 0.000000e+00
7.278481e-01 0.000000e+00 0.000000e+00
7.594937e-01 0.000000e+00 0.000000e+00
7.911392e-01 0.000000e+00 0.000000e+00
8.227848e-01 0.000000e+00 0.000000e+00
8.544304e-01 0.000000e+00 0.000000e+00
8.860759e-01 0.000000e+00 0.000000e+00
9.177215e-01 0.000000e+00 0.000000e+00
9.493671e-01 0.000000e+00 0.000000e+00
9.810127e-01 0.000000e+00 0.000000e+00
1.012658e+00 0.000000e+00 0.000000e+00
1.044304e+00 0.000000e+00 0.000000e+00
1.075949e+00 0.000000e+00 0.000000e+00
1.107595e+00 0.000000e+00 0.000000e+00
1.139241e+00 0.000000e+00 0.000000e+00
1.170886e+00 0.000000e+00 0.000000e+00
1.202532e+00 0.000000e+00 0.000000e+00
1.234177e+00 0.000000e+00 0.000000e+00
1.265823e+00 0.000000e+00 0.000000e+00
1.297468e+00 0.000000e+00 0.000000e+00
1.329114e+00 0.000000e+00 0.000000e+00
1.360759e+00 0.000000e+00 0.000000e+00
1.392405e+00 0.000000e+00 0.000000e+00
1.424051e+00 0.000000e+00 0.000000e+00
1.455696e+00 0.000000e+00 0.000000e+00
1.487342e+00 0.000000e+00 0.000000e+00
1.518987e+00 0.000000e+00 0.000000e+00
1.550633e+00 0.000000e+00 0.000000e+00
1.582278e+00 0.000000e+00 0.000000e+00
1.613924e+00 0.000000e+00 0.000000e+00
1.645570e+00 0.000000e+00 0.000000e+00
1.677215e+00 0.000000e+00 0.000000e+00
1.708861e+00 0.000000e+00 0.000000e+00
1.740506e+00 0.000000e+00 0.000000e+00
1.772152e+00 0.000000e+00 0.000000e+00
1.803797e+00 0.000000e+00 0.000000e+00
1.835443e+00 0.000000e+00 0.000000e+00
1.867089e+00 0.000000e+00 0.000000e+00
1.898734e+00 0.000000e+00 0.000000e+00
1.930380e+00 0.000000e+00 0.000000e+00
1.962025e+00 0.000000e+00 0.000000e+00
1.993671e+00 0.000000e+00 0.000000e+00
2.025316e+00 0.000000e+00 0.000000e+00
2.056962e+00 0.000000e+00 0.000000e+00
2.088608e+00 0.000000e+00 0.000000e+00
2.120253e+00 0.000000e+00 0.000000e+00
2.151899e+00 0.000000e+00 0.000000e+00
2.183544e+00 0.000000e+00 0.000000e+00
2.215190e+00 0.000000e+00 0.000000e+00
2.246835e+00 0.000000e+00 0.000000e+00
2.278481e+00 0.000000e+00 0.000000e+00
2.310127e+00 0.000000e+00 0.000000e+00
2.341772e+00 0.000000e+00 0.000000e+00
2.373418e+00 0.000000e+00 0.000000e+00
2.405063e+00 0.000000e+00 0.000000e+00
2.436709e+00 0.000000e+00 0.000000e+00
2.468354e+00 0.000000e+00 0.000000e+00
2.500000e+00 0.000000e+00 0.000000e+00
2.531646e+00 0.000000e+00 0.000000e+00
2.563291e+00 0.000000e+00 0.000000e+00
2.594937e+00 0.000000e+00 0.000000e+00
2.626582e+00 0.000000e+00 0.000000e+00
2.658228e+00 0.000000e+00 0.000000e+00
2.689873e+00 0.000000e+00 0.000000e+00
2.721519e+00 0.000000e+00 0.000000e+00
2.753165e+00 0.000000e+00 0.000000e+00
2.784810e+00 0.000000e+00 0.000000e+00
2.816456e+00 0.000000e+00 0.000000e+00
2.848101e+00 0.000000e+00 0.000000e+00
2.879747e+00 0.000000e+00 0.000000e+00
2.911392e+00 0.000000e+00 0.000000e+00
2.943038e+00 0.000000e+00 0.000000e+00
2.974684e+00 0.000000e+00 0.000000e+00
3.006329e+00 0.000000e+00 0.000000e+00
3.037975e+00 0.000000e+00 0.000000e+00
3.069620e+00 0.000000e+00 0.000000e+00
3.101266e+00 0.000000e+00 0.000000e+00
3.132911e+00 0.000000e+00 0.000000e+00
3.164557e+00 0.000000e+00 0.000000e+00
3.196203e+00 0.000000e+00 0.000000e+00
3.227848e+00 0.000000e+00 0.000000e+00
3.259494e+00 0.000000e+00 0.000000e+00
3.291139e+00 0.000000e+00 0.000000e+00
3.322785e+00 0.000000e+00 0.000000e+00
3.354430e+00 0.000000e+00 0.000000e+00
3.386076e+00 0.000000e+00 0.000000e+00
3.417722e+00 0.000000e+00 0.000000e+00
3.449367e+00 0.000000e+00 0.000000e+00
3.481013e+00 0.000000e+00 0.000000e+00
3.512658e+00 0.000000e+00 0.000000e+00
3.544304e+00 0.000000e+00 0.000000e+00
3.575949e+00 0.000000e+00 0.000000e+00
3.607595e+00 0.000000e+00 0.000000e+00
3.639241e+00 0.000000e+00 0.000000e+00
3.670886e+00 0.000000e+00 0.000000e+00
3.702532e+00 0.000000e+00 0.000000e+00
3.734177e+00 0.000000e+00 0.000000e+00
3.765823e+00 0.000000e+00 0.000000e+00
3.797468e+00 0.000000e+00 0.000000e+00
3.829114e+00 0.000000e+00 0.000000e+00
3.860759e+00 0.000000e+00 0.000000e+00
3.892405e+00 0.000000e+00 0.000000e+00
3.924051e+00 0.000000e+00 0.000000e+00
3.955696e+00 0.000000e+00 0.000000e+00
3.987342e+00 0.000000e+00 0.000000e+00
4.018987e+00 0.000000e+00 0.000000e+00
4.050633e+00 0.000000e+00 0.000000e+00
4.082278e+00 0.000000e+00 0.000000e+00
4.113924e+00 0.000000e+00 0.000000e+00
4.145570e+00 0.000000e+00 0.000000e+00
4.177215e+00 0.000000e+00 0.000000e+00
4.208861e+00 0.000000e+00 0.000000e+00
4.240506e+00 0.000000e+00 0.000000e+00
4.272152e+00 0.000000e+00 0.000000e+00
4.303797e+00 0.000000e+00 0.000000e+00
4.335443e+00 0.000000e+00 0.000000e+00
4.367089e+00 0.000000e+00 0.000000e+00
4.398734e+00 0.000000e+00 0.000000e+00
4.430380e+00 0.000000e+00 0.000000e+00
4.462025e+00 0.000000e+00 0.000000e+00
4.493671e+00 0.000000e+00 0.000000e+00
4.525316e+00 0.000000e+00 0.000000e+00
4.556962e+00 0.000000e+00 0.000000e+00
4.588608e+00 0.000000e+00 0.000000e+00
4.620253e+00 0.000000e+00 0.000000e+00
4.651899e+00 0.000000e+00 0.000000e+00
4.683544e+00 0.000000e+00 0.000000e+00
4.715190e+00 0.000000e+00 0.000000e+00
4.746835e+00 0.000000e+00 0.000000e+00
4.778481e+00 0.000000e+00 0.000000e+00
4.810127e+00 0.000000e+00 0.000000e+00
4.841772e+00 0.000000e+00 0.000000e+00
4.873418e+00 0.000000e+00 0.000000e+00
4.905063e+00 0.000000e+00 0.000000e+00
4.936709e+00 0.000000e+00 0.000000e+00
4.968354e+00 0.000000e+00 0.000000e+00
5.000000e+00 0.000000e+00 0.000000e+00
0.000000e+00 3.333333e-02 0.000000e+00
3.164557e-02 3.333333e-02 0.000000e+00
6.329114e-02 3.333333e-02 0.000000e+00
9.493671e-02 3.333333e-02 0.000000e+00
1.265823e-01 3.333333e-02 0.000000e+00
1.582278e-01 3.333333e-02 0.000000e+00
1.898734e-01 3.333333e-02 0.000000e+00
2.215190e-01 3.333333e-02 0.000000e+00
2.531646e-01 3.333333e-02 0.000000e+00
2.848101e-01 3.333333e-02 0.000000e+00
3.164557e-01 3.333333e-02 0.000000e+00
3.481013e-01 3.333333e-02 0.000000e+00
3.797468e-01 3.333333e-02 0.000000e+00
4.113924e-01 3.333333e-02 0.000000e+00
4.430380e-01 3.333333e-02 0.000000e+00
4.746835e-01 3.333333e-02 0.000000e+00
5.063291e-01 3.333333e-02 0.000000e+00
5.379747e-01 3.333333e-02 0.000000e+00
5.696203e-01 3.333333e-02 0.000000e+00
6.012658e-01 3.333333e-02 0.000000e+00
6.329114e-01 3.333333e-02 0.000000e+00
6.645570e-01 3.333333e-02 0.000000e+00
6.962025e-01 3.333333e-02 0.000000e+00
7.278481e-01 3.333333e-02 0.000000e+00
7.594937e-01 3.333333e-02 0.000000e+00
7.911392e-01 3.333333e-02 0.000000e+00
8.227848e-01 3.333333e-02 0.000000e+00
8.544304e-01 3.333333e-02 0.000000e+00
8.860759e-01 3.333333e-02 0.000000e+00
9.177215e-01 3.333333e-02 0.000000e+00
9.493671e-01 3.333333e-02 0.000000e+00
9.810127e-01 3.333333e-02 0.000000e+00
1.012658e+00 3.333333e-02 0.000000e+00
1.044304e+00 3.333333e-02 0.000000e+00
1.075949e+00 3.333333e-02 0.000000e+00
1.107595e+00 3.333333e-02 0.000000e+00
1.139241e+00 3.333333e-02 0.000000e+00
1.170886e+00 3.333333e-02 0.000000e+00
1.202532e+00 3.333333e-02 0.000000e+00
1.234177e+00 3.333333e-02 0.000000e+00
1.265823e+00 3.333333e-02 0.000000e+00
1.297468e+00 3.333333e-02 0.000000e+00
1.329114e+00 3.333333e-02 0.000000e+00
1.360759e+00 3.333333e-02 0.000000e+00
1.392405e+00 3.333333e-02 0.000000e+00
1.424051e+00 3.333333e-02 0.000000e+00
1.455696e+00 3.333333e-02 0.000000e+00
1.487342e+00 3.333333e-02 0.000000e+00
1.518987e+00 3.333333e-02 0.000000e+00
1.550633e+00 3.333333e-02 0.000000e+00
1.582278e+00 3.333333e-02 0.000000e+00
1.613924e+00 3.333333e-02 0.000000e+00
1.645570e+00 3.333333e-02 0.000000e+00
1.677215e+00 3.333333e-02 0.000000e+00
1.708861e+00 3.333333e-02 0.000000e+00
1.740506e+00 3.333333e-02 0.000000e+00
1.772152e+00 3.333333e-02 0.000000e+00
1.803797e+00 3.333333e-02 0.000000e+00
1.835443e+00 3.333333e-02 0.000000e+00
1.867089e+00 3.333333e-02 0.000000e+00
1.898734e+00 3.333333e-02 0.000000e+00
1.930380e+00 3.333333e-02 0.000000e+00
1.962025e+00 3.333333e-02 0.000000e+00
1.993671e+00 3.333333e-02 0.000000e+00
2.025316e+00 3.333333e-02 0.000000e+00
2.056962e+00 3.333333e-02 0.000000e+00
2.088608e+00 3.333333e-02 0.000000e+00
2.120253e+00 3.333333e-02 0.000000e+00
2.151899e+00 3.333333e-02 0.000000e+00
2.183544e+00 3.333333e-02 0.000000e+00
2.215190e+00 3.333333e-02 0.000000e+00
2.246835e+00 3.333333e-02 0.000000e+00
2.278481e+00 3.333333e-02 0.000000e+00
2.310127e+00 3.333333e-02 0.000000e+00
2.341772e+00 3.333333e-02 0.000000e+00
2.373418e+00 3.333333e-02 0.000000e+00
2.405063e+00 3.333333e-02 0.000000e+00
2.436709e+00 3.333333e-02 0.000000e+00
2.468354e+00 3.333333e-02 0.000000e+00
2.500000e+00 3.333333e-02 0.000000e+00
2.531646e+00 3.333333e-02 0.000000e+00
2.563291e+00 3.333333e-02 0.000000e+00
2.594937e+00 3.333333e-02 0.000000e+00
2.626582e+00 3.333333e-02 0.000000e+00
2.658228e+00 3.333333e-02 0.000000e+00
2.689873e+00 3.333333e-02 0.000000e+00
2.721519e+00 3.333333e-02 0.000000e+00
2.753165e+00 3.333333e-02 0.000000e+00
2.784810e+00 3.333333e-02 0.000000e+00
2.816456e+00 3.333333e-02 0.000000e+00
2.848101e+00 3.333333e-02 0.000000e+00
2.879747e+00 3.333333e-02 0.000000e+00
[...]
<PointData>
<DataArray Name="Velocity" type="Float64" format="ascii" NumberOfComponents="3">
0.000000e+00 0.000000e+00 0
0.000000e+00 0.000000e+00 0
0.000000e+00 0.000000e+00 0
0.000000e+00 0.000000e+00 0
0.000000e+00 0.000000e+00 0
0.000000e+00 0.000000e+00 0
0.000000e+00 0.000000e+00 0
0.000000e+00 0.000000e+00 0
0.000000e+00 0.000000e+00 0
0.000000e+00 0.000000e+00 0
0.000000e+00 0.000000e+00 0
0.000000e+00 0.000000e+00 0
0.000000e+00 0.000000e+00 0
0.000000e+00 0.000000e+00 0
0.000000e+00 0.000000e+00 0
0.000000e+00 0.000000e+00 0
0.000000e+00 0.000000e+00 0
0.000000e+00 0.000000e+00 0
0.000000e+00 0.000000e+00 0
-6.330341e-18 0.000000e+00 0
0.000000e+00 0.000000e+00 0
0.000000e+00 0.000000e+00 0
0.000000e+00 0.000000e+00 0
-4.235753e-17 0.000000e+00 0
0.000000e+00 0.000000e+00 0
0.000000e+00 0.000000e+00 0
0.000000e+00 0.000000e+00 0
2.465267e-18 0.000000e+00 0
0.000000e+00 0.000000e+00 0
0.000000e+00 0.000000e+00 0
0.000000e+00 0.000000e+00 0
6.020735e-18 0.000000e+00 0
0.000000e+00 0.000000e+00 0
0.000000e+00 0.000000e+00 0
0.000000e+00 0.000000e+00 0
0.000000e+00 0.000000e+00 0
0.000000e+00 0.000000e+00 0
0.000000e+00 0.000000e+00 0
-7.284355e-18 0.000000e+00 0
0.000000e+00 0.000000e+00 0
0.000000e+00 0.000000e+00 0
0.000000e+00 0.000000e+00 0
0.000000e+00 0.000000e+00 0
0.000000e+00 0.000000e+00 0
0.000000e+00 0.000000e+00 0
0.000000e+00 0.000000e+00 0
-2.021169e-18 0.000000e+00 0
0.000000e+00 0.000000e+00 0
0.000000e+00 0.000000e+00 0
0.000000e+00 0.000000e+00 0
0.000000e+00 0.000000e+00 0
0.000000e+00 0.000000e+00 0
0.000000e+00 0.000000e+00 0
0.000000e+00 0.000000e+00 0
-1.489622e-17 0.000000e+00 0
0.000000e+00 0.000000e+00 0
0.000000e+00 0.000000e+00 0
0.000000e+00 0.000000e+00 0
0.000000e+00 0.000000e+00 0
0.000000e+00 0.000000e+00 0
0.000000e+00 0.000000e+00 0
0.000000e+00 0.000000e+00 0
-1.143001e-17 0.000000e+00 0
0.000000e+00 0.000000e+00 0
0.000000e+00 0.000000e+00 0
0.000000e+00 0.000000e+00 0
0.000000e+00 0.000000e+00 0
0.000000e+00 0.000000e+00 0
0.000000e+00 0.000000e+00 0
0.000000e+00 0.000000e+00 0
0.000000e+00 0.000000e+00 0
0.000000e+00 0.000000e+00 0
0.000000e+00 0.000000e+00 0
0.000000e+00 0.000000e+00 0
0.000000e+00 0.000000e+00 0
0.000000e+00 0.000000e+00 0
0.000000e+00 0.000000e+00 0
0.000000e+00 0.000000e+00 0
0.000000e+00 0.000000e+00 0
0.000000e+00 0.000000e+00 0
0.000000e+00 0.000000e+00 0
0.000000e+00 0.000000e+00 0
0.000000e+00 0.000000e+00 0
0.000000e+00 0.000000e+00 0
0.000000e+00 0.000000e+00 0
0.000000e+00 0.000000e+00 0
0.000000e+00 0.000000e+00 0
0.000000e+00 0.000000e+00 0
0.000000e+00 0.000000e+00 0
0.000000e+00 0.000000e+00 0
0.000000e+00 0.000000e+00 0
0.000000e+00 0.000000e+00 0
0.000000e+00 0.000000e+00 0
0.000000e+00 0.000000e+00 0
0.000000e+00 0.000000e+00 0
0.000000e+00 0.000000e+00 0
0.000000e+00 0.000000e+00 0
0.000000e+00 0.000000e+00 0
0.000000e+00 0.000000e+00 0
0.000000e+00 0.000000e+00 0
0.000000e+00 0.000000e+00 0
0.000000e+00 0.000000e+00 0
0.000000e+00 0.000000e+00 0
0.000000e+00 0.000000e+00 0
0.000000e+00 0.000000e+00 0
0.000000e+00 0.000000e+00 0
0.000000e+00 0.000000e+00 0
0.000000e+00 0.000000e+00 0
0.000000e+00 0.000000e+00 0
0.000000e+00 0.000000e+00 0
0.000000e+00 0.000000e+00 0
0.000000e+00 0.000000e+00 0
0.000000e+00 0.000000e+00 0
0.000000e+00 0.000000e+00 0
0.000000e+00 0.000000e+00 0
0.000000e+00 0.000000e+00 0
0.000000e+00 0.000000e+00 0
0.000000e+00 0.000000e+00 0
0.000000e+00 0.000000e+00 0
0.000000e+00 0.000000e+00 0
0.000000e+00 0.000000e+00 0
0.000000e+00 0.000000e+00 0
0.000000e+00 0.000000e+00 0
0.000000e+00 0.000000e+00 0
0.000000e+00 0.000000e+00 0
0.000000e+00 0.000000e+00 0
0.000000e+00 0.000000e+00 0
0.000000e+00 0.000000e+00 0
0.000000e+00 0.000000e+00 0
0.000000e+00 0.000000e+00 0
0.000000e+00 0.000000e+00 0
0.000000e+00 0.000000e+00 0
0.000000e+00 0.000000e+00 0
0.000000e+00 0.000000e+00 0
0.000000e+00 0.000000e+00 0
0.000000e+00 0.000000e+00 0
0.000000e+00 0.000000e+00 0
0.000000e+00 0.000000e+00 0
0.000000e+00 0.000000e+00 0
0.000000e+00 0.000000e+00 0
0.000000e+00 0.000000e+00 0
0.000000e+00 0.000000e+00 0
0.000000e+00 0.000000e+00 0
0.000000e+00 0.000000e+00 0
0.000000e+00 0.000000e+00 0
0.000000e+00 0.000000e+00 0
0.000000e+00 0.000000e+00 0
0.000000e+00 0.000000e+00 0
0.000000e+00 0.000000e+00 0
0.000000e+00 0.000000e+00 0
0.000000e+00 0.000000e+00 0
0.000000e+00 0.000000e+00 0
0.000000e+00 0.000000e+00 0
0.000000e+00 0.000000e+00 0
0.000000e+00 0.000000e+00 0
0.000000e+00 0.000000e+00 0
0.000000e+00 0.000000e+00 0
0.000000e+00 0.000000e+00 0
0.000000e+00 0.000000e+00 0
1.682912e+00 -5.172742e-05 0
1.682912e+00 -5.547961e-05 0
1.682958e+00 -5.072790e-05 0
1.682989e+00 -2.599204e-05 0
1.682993e+00 1.036431e-05 0
1.682960e+00 5.646209e-05 0
1.682878e+00 1.153718e-04 0
1.682733e+00 1.891674e-04 0
1.682510e+00 2.798170e-04 0
1.682191e+00 3.894966e-04 0
1.681759e+00 5.206702e-04 0
1.681191e+00 6.760650e-04 0
1.680463e+00 8.587132e-04 0
1.679547e+00 1.072075e-03 0
1.678412e+00 1.320106e-03 0
1.677023e+00 1.607275e-03 0
1.675341e+00 1.938720e-03 0
1.673321e+00 2.320470e-03 0
1.670911e+00 2.759533e-03 0
1.668055e+00 3.264172e-03 0
1.664684e+00 3.844359e-03 0
1.660721e+00 4.512043e-03 0
1.656078e+00 5.281485e-03 0
1.650649e+00 6.169367e-03 0
1.644312e+00 7.194333e-03 0
1.636926e+00 8.375383e-03 0
1.628330e+00 9.727492e-03 0
1.618350e+00 1.125207e-02 0
1.606814e+00 1.291835e-02 0
1.593592e+00 1.463094e-02 0
1.578683e+00 1.618474e-02 0
1.562351e+00 1.723116e-02 0
1.545315e+00 1.732986e-02 0
1.528829e+00 1.619657e-02 0
1.514279e+00 1.402399e-02 0
1.502378e+00 1.136432e-02 0
1.493172e+00 8.724585e-03 0
1.486346e+00 6.398666e-03 0
1.481461e+00 4.490815e-03 0
1.478093e+00 2.991878e-03 0
1.475879e+00 1.840272e-03 0
1.474535e+00 9.526402e-04 0
1.473851e+00 1.770088e-04 0
1.473663e+00 -5.226128e-04 0
1.473872e+00 -1.070271e-03 0
1.474373e+00 -1.466583e-03 0
1.475074e+00 -1.726937e-03 0
1.475897e+00 -1.871363e-03 0
1.476778e+00 -1.920166e-03 0
1.477663e+00 -1.892091e-03 0
1.478512e+00 -1.803648e-03 0
1.479292e+00 -1.668974e-03 0
1.479977e+00 -1.499956e-03 0
1.480550e+00 -1.306452e-03 0
1.480997e+00 -1.096480e-03 0
1.481312e+00 -8.761522e-04 0
1.481489e+00 -6.500972e-04 0
1.481533e+00 -4.213982e-04 0
1.481461e+00 -2.070007e-04 0
1.481285e+00 -3.824914e-05 0
1.481014e+00 8.225421e-05 0
1.480657e+00 1.775994e-04 0
1.480220e+00 2.612525e-04 0
1.479711e+00 3.375799e-04 0
1.479134e+00 4.083159e-04 0
1.478494e+00 4.743108e-04 0
1.477794e+00 5.360718e-04 0
1.477039e+00 5.939549e-04 0
1.476231e+00 6.482378e-04 0
1.475374e+00 6.991498e-04 0
1.474470e+00 7.468848e-04 0
1.473523e+00 7.916100e-04 0
1.472535e+00 8.334736e-04 0
1.471509e+00 8.726138e-04 0
1.470447e+00 9.091654e-04 0
1.469351e+00 9.432644e-04 0
1.468224e+00 9.750454e-04 0
1.467068e+00 1.004636e-03 0
1.465884e+00 1.032148e-03 0
1.464674e+00 1.057682e-03 0
1.463441e+00 1.081325e-03 0
1.462186e+00 1.103167e-03 0
1.460910e+00 1.123304e-03 0
1.459615e+00 1.141836e-03 0
1.458302e+00 1.158861e-03 0
1.456973e+00 1.174463e-03 0
1.455630e+00 1.188712e-03 0
1.454272e+00 1.201665e-03 0
1.452902e+00 1.213379e-03 0
1.451520e+00 1.223919e-03 0
1.450128e+00 1.233355e-03 0
1.448726e+00 1.241762e-03 0
1.447316e+00 1.249201e-03 0
1.445898e+00 1.255721e-03 0
1.444474e+00 1.261359e-03 0
1.443043e+00 1.266150e-03 0
1.441607e+00 1.270136e-03 0
1.440166e+00 1.273368e-03 0
1.438721e+00 1.275896e-03 0
1.437274e+00 1.277764e-03 0
1.435823e+00 1.279001e-03 0
1.434370e+00 1.279633e-03 0
1.432916e+00 1.279684e-03 0
1.431460e+00 1.279187e-03 0
1.430004e+00 1.278181e-03 0
1.428548e+00 1.276698e-03 0
1.427093e+00 1.274759e-03 0
1.425638e+00 1.272374e-03 0
1.424184e+00 1.269552e-03 0
1.422732e+00 1.266311e-03 0
1.421282e+00 1.262682e-03 0
1.419834e+00 1.258702e-03 0
1.418388e+00 1.254397e-03 0
1.416946e+00 1.249776e-03 0
1.415507e+00 1.244834e-03 0
1.414071e+00 1.239566e-03 0
1.412639e+00 1.233978e-03 0
1.411212e+00 1.228090e-03 0
1.409788e+00 1.221925e-03 0
1.408370e+00 1.215505e-03 0
1.406956e+00 1.208838e-03 0
1.405547e+00 1.201924e-03 0
1.404144e+00 1.194759e-03 0
1.402747e+00 1.187344e-03 0
1.401355e+00 1.179686e-03 0
1.399970e+00 1.171793e-03 0
1.398590e+00 1.163673e-03 0
1.397218e+00 1.155331e-03 0
1.395852e+00 1.146767e-03 0
1.394493e+00 1.137983e-03 0
1.393141e+00 1.128975e-03 0
1.391797e+00 1.119745e-03 0
1.390461e+00 1.110291e-03 0
1.389132e+00 1.100614e-03 0
1.387811e+00 1.090714e-03 0
1.386499e+00 1.080591e-03 0
1.385195e+00 1.070240e-03 0
1.383900e+00 1.059659e-03 0
1.382614e+00 1.048840e-03 0
1.381338e+00 1.037779e-03 0
1.380070e+00 1.026465e-03 0
1.378813e+00 1.014890e-03 0
1.377566e+00 1.003042e-03 0
1.376328e+00 9.909011e-04 0
1.375102e+00 9.784436e-04 0
1.373886e+00 9.656354e-04 0
1.372682e+00 9.524246e-04 0
1.371489e+00 9.387380e-04 0
1.370309e+00 9.244676e-04 0
1.369141e+00 9.094514e-04 0
1.367987e+00 8.934419e-04 0
1.366848e+00 8.760496e-04 0
1.365725e+00 8.566257e-04 0
1.364621e+00 8.340105e-04 0
1.363538e+00 8.056914e-04 0
1.362483e+00 7.670054e-04 0
1.361465e+00 6.727508e-04 0
1.360500e+00 7.765596e-04 0
1.360500e+00 9.519634e-04 0
2.604484e+00 -1.022028e-04 0
2.604484e+00 -9.959940e-05 0
2.604523e+00 -8.104670e-05 0
2.604549e+00 -3.729827e-05 0
2.604556e+00 2.990054e-05 0
2.604530e+00 1.213627e-04 0
2.604462e+00 2.396398e-04 0
2.604338e+00 3.879498e-04 0
2.604146e+00 5.700622e-04 0
2.603870e+00 7.903285e-04 0
2.603494e+00 1.053638e-03 0
2.602998e+00 1.365464e-03 0
2.602361e+00 1.732004e-03 0
2.601557e+00 2.160269e-03 0
2.600561e+00 2.658126e-03 0
2.599339e+00 3.234530e-03 0
2.597859e+00 3.899847e-03 0
2.596079e+00 4.666050e-03 0
2.593955e+00 5.547146e-03 0
2.591436e+00 6.559888e-03 0
2.588464e+00 7.724329e-03 0
2.584970e+00 9.064572e-03 0
2.580875e+00 1.060952e-02 0
2.576088e+00 1.239325e-02 0
2.570499e+00 1.445452e-02 0
2.563977e+00 1.683403e-02 0
2.556369e+00 1.956679e-02 0
2.547492e+00 2.266443e-02 0
2.537136e+00 2.607829e-02 0
2.525084e+00 2.963058e-02 0
2.511168e+00 3.290704e-02 0
2.495434e+00 3.514759e-02 0
2.478502e+00 3.531024e-02 0
2.462059e+00 3.269132e-02 0
2.448298e+00 2.786269e-02 0
2.437785e+00 2.223367e-02 0
2.430133e+00 1.688692e-02 0
2.424704e+00 1.233476e-02 0
2.420922e+00 8.692577e-03 0
2.418336e+00 5.880189e-03 0
2.416616e+00 3.748085e-03 0
2.415519e+00 2.136645e-03 0
2.414860e+00 9.189966e-04 0
2.414426e+00 -2.204229e-05 0
2.414122e+00 -7.482604e-04 0
2.413900e+00 -1.266620e-03 0
2.413726e+00 -1.605682e-03 0
2.413577e+00 -1.794481e-03 0
2.413435e+00 -1.860076e-03 0
2.413286e+00 -1.826564e-03 0
2.413119e+00 -1.714835e-03 0
2.412925e+00 -1.542699e-03 0
2.412697e+00 -1.325195e-03 0
2.412429e+00 -1.075019e-03 0
2.412119e+00 -8.029005e-04 0
2.411765e+00 -5.175681e-04 0
2.411372e+00 -2.323626e-04 0
2.410948e+00 2.945763e-05 0
2.410494e+00 2.606494e-04 0
2.410005e+00 4.706013e-04 0
2.409459e+00 6.621150e-04 0
2.408847e+00 8.363128e-04 0
2.408170e+00 9.960417e-04 0
2.407431e+00 1.144044e-03 0
2.406633e+00 1.282121e-03 0
2.405780e+00 1.411438e-03 0
2.404875e+00 1.532803e-03 0
2.403920e+00 1.646826e-03 0
2.402919e+00 1.753994e-03 0
2.401874e+00 1.854718e-03 0
2.400788e+00 1.949350e-03 0
2.399662e+00 2.038204e-03 0
2.398500e+00 2.121568e-03 0
2.397304e+00 2.199714e-03 0
2.396074e+00 2.272905e-03 0
2.394814e+00 2.341400e-03 0
2.393526e+00 2.405445e-03 0
2.392210e+00 2.465269e-03 0
2.390869e+00 2.521083e-03 0
2.389505e+00 2.573080e-03 0
2.388118e+00 2.621446e-03 0
2.386710e+00 2.666365e-03 0
2.385283e+00 2.708021e-03 0
2.383838e+00 2.746594e-03 0
2.382376e+00 2.782252e-03 0
2.380898e+00 2.815148e-03 0
2.379405e+00 2.845415e-03 0
2.377899e+00 2.873182e-03 0
2.376380e+00 2.898572e-03 0
2.374850e+00 2.921715e-03 0
2.373309e+00 2.942739e-03 0
2.371757e+00 2.961765e-03 0
2.370197e+00 2.978900e-03 0
2.368628e+00 2.994233e-03 0
2.367052e+00 3.007849e-03 0
2.365468e+00 3.019834e-03 0
2.363878e+00 3.030275e-03 0
2.362282e+00 3.039264e-03 0
2.360682e+00 3.046882e-03 0
2.359076e+00 3.053198e-03 0
2.357467e+00 3.058270e-03 0
2.355853e+00 3.062156e-03 0
2.354237e+00 3.064917e-03 0
2.352618e+00 3.066617e-03 0
2.350997e+00 3.067319e-03 0
2.349374e+00 3.067070e-03 0
2.347750e+00 3.065908e-03 0
2.346125e+00 3.063861e-03 0
2.344499e+00 3.060963e-03 0
2.342872e+00 3.057261e-03 0
2.341246e+00 3.052807e-03 0
2.339620e+00 3.047647e-03 0
2.337994e+00 3.041812e-03 0
2.336369e+00 3.035315e-03 0
2.334746e+00 3.028163e-03 0
2.333124e+00 3.020370e-03 0
2.331504e+00 3.011961e-03 0
2.329885e+00 3.002970e-03 0
2.328269e+00 2.993427e-03 0
2.326655e+00 2.983353e-03 0
2.325044e+00 2.972756e-03 0
2.323436e+00 2.961641e-03 0
2.321831e+00 2.950013e-03 0
2.320229e+00 2.937883e-03 0
2.318631e+00 2.925262e-03 0
2.317036e+00 2.912163e-03 0
2.315446e+00 2.898595e-03 0
2.313860e+00 2.884561e-03 0
2.312278e+00 2.870063e-03 0
2.310701e+00 2.855101e-03 0
2.309128e+00 2.839675e-03 0
2.307561e+00 2.823784e-03 0
2.305999e+00 2.807429e-03 0
2.304442e+00 2.790609e-03 0
2.302891e+00 2.773320e-03 0
2.301346e+00 2.755559e-03 0
2.299807e+00 2.737318e-03 0
2.298274e+00 2.718587e-03 0
2.296748e+00 2.699358e-03 0
2.295228e+00 2.679616e-03 0
2.293716e+00 2.659345e-03 0
2.292211e+00 2.638526e-03 0
2.290713e+00 2.617131e-03 0
2.289223e+00 2.595125e-03 0
2.287741e+00 2.572457e-03 0
2.286268e+00 2.549056e-03 0
2.284803e+00 2.524821e-03 0
2.283347e+00 2.499606e-03 0
2.281901e+00 2.473197e-03 0
2.280465e+00 2.445276e-03 0
2.279039e+00 2.415363e-03 0
2.277625e+00 2.382711e-03 0
2.276224e+00 2.346116e-03 0
2.274837e+00 2.303553e-03 0
2.273465e+00 2.251495e-03 0
2.272111e+00 2.183467e-03 0
2.270776e+00 2.089555e-03 0
2.269420e+00 2.074903e-03 0
2.269420e+00 2.115099e-03 0
3.082704e+00 -1.546715e-04 0
3.082704e+00 -1.480940e-04 0
3.082750e+00 -1.197474e-04 0
3.082788e+00 -6.064762e-05 0
3.082810e+00 3.034992e-05 0
3.082811e+00 1.554121e-04 0
3.082781e+00 3.178148e-04 0
3.082714e+00 5.218322e-04 0
3.082598e+00 7.726547e-04 0
3.082422e+00 1.076258e-03 0
3.082176e+00 1.439419e-03 0
3.081843e+00 1.869829e-03 0
3.081409e+00 2.376140e-03 0
3.080855e+00 2.967995e-03 0
3.080161e+00 3.656244e-03 0
3.079304e+00 4.453265e-03 0
3.078258e+00 5.373170e-03 0
3.076996e+00 6.432237e-03 0
3.075485e+00 7.649693e-03 0
3.073689e+00 9.048385e-03 0
3.071567e+00 1.065574e-02 0
3.069071e+00 1.250500e-02 0
3.066148e+00 1.463660e-02 0
3.062732e+00 1.709933e-02 0
3.058745e+00 1.995125e-02 0
3.054088e+00 2.325892e-02 0
3.048630e+00 2.709254e-02 0
3.042194e+00 3.151063e-02 0
3.034520e+00 3.652032e-02 0
3.025222e+00 4.198367e-02 0
3.013745e+00 4.741687e-02 0
2.999447e+00 5.163943e-02 0
2.982240e+00 5.248524e-02 0
2.964753e+00 4.801271e-02 0
2.952203e+00 3.959243e-02 0
2.944319e+00 3.049804e-02 0
2.939565e+00 2.250254e-02 0
2.936698e+00 1.609982e-02 0
2.934951e+00 1.119848e-02 0
2.933883e+00 7.528313e-03 0
2.933238e+00 4.808584e-03 0
2.932863e+00 2.802151e-03 0
2.932648e+00 1.327842e-03 0
2.932523e+00 2.545759e-04 0
2.932410e+00 -5.159926e-04 0
2.932282e+00 -1.049435e-03 0
2.932130e+00 -1.387152e-03 0
2.931948e+00 -1.564975e-03 0
2.931736e+00 -1.613524e-03 0
2.931495e+00 -1.558817e-03 0
2.931226e+00 -1.422854e-03 0
2.930928e+00 -1.224148e-03 0
2.930605e+00 -9.782346e-04 0
2.930255e+00 -6.984270e-04 0
2.929879e+00 -3.964014e-04 0
2.929483e+00 -8.897546e-05 0
2.929067e+00 2.109251e-04 0
2.928628e+00 5.035219e-04 0
2.928150e+00 7.859255e-04 0
2.927628e+00 1.052553e-03 0
2.927060e+00 1.302221e-03 0
2.926445e+00 1.535123e-03 0
2.925783e+00 1.752533e-03 0
2.925075e+00 1.956015e-03 0
2.924322e+00 2.146926e-03 0
2.923526e+00 2.326347e-03 0
2.922691e+00 2.495141e-03 0
2.921817e+00 2.654015e-03 0
2.920908e+00 2.803571e-03 0
2.919964e+00 2.944329e-03 0
2.918988e+00 3.076749e-03 0
2.917982e+00 3.201251e-03 0
2.916947e+00 3.318226e-03 0
2.915885e+00 3.428048e-03 0
2.914797e+00 3.531080e-03 0
2.913685e+00 3.627671e-03 0
2.912551e+00 3.718151e-03 0
2.911395e+00 3.802827e-03 0
2.910219e+00 3.881984e-03 0
2.909024e+00 3.955893e-03 0
2.907812e+00 4.024816e-03 0
2.906582e+00 4.089012e-03 0
2.905338e+00 4.148732e-03 0
2.904078e+00 4.204216e-03 0
2.902805e+00 4.255687e-03 0
2.901519e+00 4.303345e-03 0
2.900221e+00 4.347380e-03 0
2.898912e+00 4.387973e-03 0
2.897592e+00 4.425304e-03 0
2.896262e+00 4.459554e-03 0
2.894924e+00 4.490891e-03 0
2.893577e+00 4.519473e-03 0
2.892222e+00 4.545435e-03 0
2.890860e+00 4.568905e-03 0
2.889491e+00 4.590005e-03 0
2.888116e+00 4.608861e-03 0
2.886736e+00 4.625599e-03 0
2.885350e+00 4.640336e-03 0
2.883959e+00 4.653175e-03 0
2.882564e+00 4.664205e-03 0
2.881165e+00 4.673511e-03 0
2.879762e+00 4.681176e-03 0
2.878357e+00 4.687290e-03 0
2.876948e+00 4.691940e-03 0
2.875537e+00 4.695203e-03 0
2.874123e+00 4.697138e-03 0
2.872708e+00 4.697794e-03 0
2.871291e+00 4.697220e-03 0
2.869872e+00 4.695474e-03 0
2.868453e+00 4.692622e-03 0
2.867032e+00 4.688728e-03 0
2.865612e+00 4.683842e-03 0
2.864190e+00 4.677996e-03 0
2.862769e+00 4.671208e-03 0
2.861347e+00 4.663500e-03 0
2.859926e+00 4.654905e-03 0
2.858505e+00 4.645464e-03 0
2.857085e+00 4.635217e-03 0
2.855666e+00 4.624194e-03 0
2.854248e+00 4.612413e-03 0
2.852831e+00 4.599884e-03 0
2.851416e+00 4.586619e-03 0
2.850002e+00 4.572631e-03 0
2.848589e+00 4.557938e-03 0
2.847179e+00 4.542556e-03 0
2.845771e+00 4.526497e-03 0
2.844365e+00 4.509769e-03 0
2.842961e+00 4.492374e-03 0
2.841561e+00 4.474315e-03 0
2.840162e+00 4.455591e-03 0
2.838767e+00 4.436205e-03 0
2.837375e+00 4.416155e-03 0
2.835986e+00 4.395443e-03 0
2.834600e+00 4.374063e-03 0
2.833218e+00 4.352012e-03 0
2.831840e+00 4.329280e-03 0
2.830466e+00 4.305858e-03 0
2.829096e+00 4.281732e-03 0
2.827730e+00 4.256889e-03 0
2.826368e+00 4.231312e-03 0
2.825012e+00 4.204978e-03 0
2.823660e+00 4.177861e-03 0
2.822313e+00 4.149927e-03 0
2.820971e+00 4.121126e-03 0
2.819635e+00 4.091394e-03 0
2.818304e+00 4.060639e-03 0
2.816980e+00 4.028731e-03 0
2.815661e+00 3.995488e-03 0
2.814349e+00 3.960642e-03 0
2.813043e+00 3.923806e-03 0
2.811745e+00 3.884410e-03 0
2.810454e+00 3.841598e-03 0
2.809170e+00 3.794092e-03 0
2.807894e+00 3.739968e-03 0
2.806624e+00 3.676454e-03 0
2.805361e+00 3.600067e-03 0
2.804097e+00 3.507515e-03 0
2.802823e+00 3.419570e-03 0
2.802823e+00 3.382299e-03 0
3.337301e+00 -2.124482e-04 0
3.337301e+00 -2.037416e-04 0
3.337357e+00 -1.694336e-04 0
3.337407e+00 -1.002437e-04 0
3.337448e+00 5.814072e-06 0
3.337476e+00 1.517471e-04 0
3.337486e+00 3.419449e-04 0
3.337473e+00 5.815381e-04 0
3.337431e+00 8.767228e-04 0
3.337351e+00 1.234697e-03 0
3.337227e+00 1.663712e-03 0
3.337047e+00 2.173044e-03 0
3.336800e+00 2.772993e-03 0
3.336475e+00 3.475027e-03 0
3.336056e+00 4.292027e-03 0
3.335529e+00 5.238426e-03 0
3.334876e+00 6.330554e-03 0
3.334078e+00 7.587311e-03 0
3.333116e+00 9.030791e-03 0
3.331966e+00 1.068717e-02 0
3.330604e+00 1.258803e-02 0
3.329003e+00 1.477198e-02 0
3.327132e+00 1.728665e-02 0
3.324954e+00 2.019131e-02 0
3.322424e+00 2.356047e-02 0
3.319481e+00 2.748835e-02 0
3.316036e+00 3.209423e-02 0
3.311942e+00 3.752646e-02 0
3.306932e+00 4.395522e-02 0
3.300487e+00 5.151455e-02 0
3.291559e+00 6.005698e-02 0
3.278126e+00 6.833291e-02 0
3.257074e+00 7.185519e-02 0
3.232234e+00 6.433079e-02 0
3.220545e+00 4.938628e-02 0
3.216404e+00 3.554519e-02 0
3.215458e+00 2.491374e-02 0
3.215668e+00 1.719389e-02 0
3.216214e+00 1.165856e-02 0
3.216795e+00 7.684882e-03 0
3.217313e+00 4.822235e-03 0
3.217740e+00 2.758390e-03 0
3.218067e+00 1.277546e-03 0
3.218298e+00 2.290433e-04 0
3.218437e+00 -4.951806e-04 0
3.218487e+00 -9.716467e-04 0
3.218456e+00 -1.253198e-03 0
3.218355e+00 -1.379758e-03 0
3.218193e+00 -1.382986e-03 0
3.217980e+00 -1.288663e-03 0
3.217723e+00 -1.118081e-03 0
3.217431e+00 -8.888975e-04 0
3.217107e+00 -6.155144e-04 0
3.216757e+00 -3.104459e-04 0
3.216384e+00 1.047664e-05 0
3.215990e+00 3.377246e-04 0
3.215570e+00 6.680922e-04 0
3.215120e+00 9.952269e-04 0
3.214641e+00 1.313390e-03 0
3.214131e+00 1.618367e-03 0
3.213589e+00 1.908100e-03 0
3.213013e+00 2.181936e-03 0
3.212403e+00 2.440155e-03 0
3.211760e+00 2.683503e-03 0
3.211084e+00 2.912849e-03 0
3.210377e+00 3.129039e-03 0
3.209640e+00 3.332850e-03 0
3.208874e+00 3.524982e-03 0
3.208082e+00 3.706065e-03 0
3.207264e+00 3.876669e-03 0
3.206422e+00 4.037317e-03 0
3.205556e+00 4.188495e-03 0