<?xml version="1.0"?>
<VTKFile type="StructuredGrid">
<StructuredGrid WholeExtent="0 158 0 30 0 0 ">
<Piece Extent="0 158 0 30 0 0 ">
<Points>
<DataArray type="Float64" format="ascii" NumberOfComponents="3">
0.000000e+00 0.000000e+00 0.000000e+00
3.164557e-02 0.000000e+00 0.000000e+00
6.329114e-02 0.000000e+00 0.000000e+00
9.493671e-02 0.000000e+00 0.000000e+00
1.265823e-01 0.000000e+00 0.000000e+00
1.582278e-01 0.000000e+00 0.000000e+00
1.898734e-01 0.000000e+00 0.000000e+00
2.215190e-01 0.000000e+00 0.000000e+00
2.531646e-01 0.000000e+00 0.000000e+00
2.848101e-01 0.000000e+00 0.000000e+00
3.164557e-01 0.000000e+00 0.000000e+00
3.481013e-01 0.000000e+00 0.000000e+00
3.797468e-01 0.000000e+00 0.000000e+00
4.113924e-01 0.000000e+00 0.000000e+00
4.430380e-01 0.000000e+00 0.000000e+00
4.746835e-01 0.000000e+00 0.000000e+00
5.063291e-01 0.000000e+00 0.000000e+00
5.379747e-01 0.000000e+00 0.000000e+00
5.696203e-01 0.000000e+00 0.000000e+00
6.012658e-01 0.000000e+00 0.000000e+00
6.329114e-01 0.000000e+00 0.000000e+00
6.645570e-01 0.000000e+00 0.000000e+00
6.962025e-01 0.000000e+00 0.000000e+00
7.278481e-01 0.000000e+00 0.000000e+00
7.594937e-01 0.000000e+00 0.000000e+00
7.911392e-01 0.000000e+00 0.000000e+00
8.227848e-01 0.000000e+00 0.000000e+00
8.544304e-01 0.000000e+00 0.000000e+00
8.860759e-01 0.000000e+00 0.000000e+00
9.177215e-01 0.000000e+00 0.000000e+00
9.493671e-01 0.000000e+00 0.000000e+00
9.810127e-01 0.000000e+00 0.000000e+00
1.012658e+00 0.000000e+00 0.000000e+00
1.044304e+00 0.000000e+00 0.000000e+00
1.075949e+00 0.000000e+00 0.000000e+00
1.107595e+00 0.000000e+00 0.000000e+00
1.139241e+00 0.000000e+00 0.000000e+00
1.170886e+00 0.000000e+00 0.000000e+00
1.202532e+00 0.000000e+00 0.000000e+00
1.234177e+00 0.000000e+00 0.000000e+00
1.265823e+00 0.000000e+00 0.000000e+00
1.297468e+00 0.000000e+00 0.000000e+00
1.329114e+00 0.000000e+00 0.000000e+00
1.360759e+00 0.000000e+00 0.000000e+00
1.392405e+00 0.000000e+00 0.000000e+00
1.424051e+00 0.000000e+00 0.000000e+00
1.455696e+00 0.000000e+00 0.000000e+00
1.487342e+00 0.000000e+00 0.000000e+00
1.518987e+00 0.000000e+00 0.000000e+00
1.550633e+00 0.000000e+00 0.000000e+00
1.582278e+00 0.000000e+00 0.000000e+00
1.613924e+00 0.000000e+00 0.000000e+00
1.645570e+00 0.000000e+00 0.000000e+00
1.677215e+00 0.000000e+00 0.000000e+00
1.708861e+00 0.000000e+00 0.000000e+00
1.740506e+00 0.000000e+00 0.000000e+00
1.772152e+00 0.000000e+00 0.000000e+00
1.803797e+00 0.000000e+00 0.000000e+00
1.835443e+00 0.000000e+00 0.000000e+00
1.867089e+00 0.000000e+00 0.000000e+00
1.898734e+00 0.000000e+00 0.000000e+00
1.930380e+00 0.000000e+00 0.000000e+00
1.962025e+00 0.000000e+00 0.000000e+00
1.993671e+00 0.000000e+00 0.000000e+00
2.025316e+00 0.000000e+00 0.000000e+00
2.056962e+00 0.000000e+00 0.000000e+00
2.088608e+00 0.000000e+00 0.000000e+00
2.120253e+00 0.000000e+00 0.000000e+00
2.151899e+00 0.000000e+00 0.000000e+00
2.183544e+00 0.000000e+00 0.000000e+00
2.215190e+00 0.000000e+00 0.000000e+00
2.246835e+00 0.000000e+00 0.000000e+00
2.278481e+00 0.000000e+00 0.000000e+00
2.310127e+00 0.000000e+00 0.000000e+00
2.341772e+00 0.000000e+00 0.000000e+00
2.373418e+00 0.000000e+00 0.000000e+00
2.405063e+00 0.000000e+00 0.000000e+00
2.436709e+00 0.000000e+00 0.000000e+00
2.468354e+00 0.000000e+00 0.000000e+00
2.500000e+00 0.000000e+00 0.000000e+00
2.531646e+00 0.000000e+00 0.000000e+00
2.563291e+00 0.000000e+00 0.000000e+00
2.594937e+00 0.000000e+00 0.000000e+00
2.626582e+00 0.000000e+00 0.000000e+00
2.658228e+00 0.000000e+00 0.000000e+00
2.689873e+00 0.000000e+00 0.000000e+00
2.721519e+00 0.000000e+00 0.000000e+00
2.753165e+00 0.000000e+00 0.000000e+00
2.784810e+00 0.000000e+00 0.000000e+00
2.816456e+00 0.000000e+00 0.000000e+00
2.848101e+00 0.000000e+00 0.000000e+00
2.879747e+00 0.000000e+00 0.000000e+00
2.911392e+00 0.000000e+00 0.000000e+00
2.943038e+00 0.000000e+00 0.000000e+00
2.974684e+00 0.000000e+00 0.000000e+00
3.006329e+00 0.000000e+00 0.000000e+00
3.037975e+00 0.000000e+00 0.000000e+00
3.069620e+00 0.000000e+00 0.000000e+00
3.101266e+00 0.000000e+00 0.000000e+00
3.132911e+00 0.000000e+00 0.000000e+00
3.164557e+00 0.000000e+00 0.000000e+00
3.196203e+00 0.000000e+00 0.000000e+00
3.227848e+00 0.000000e+00 0.000000e+00
3.259494e+00 0.000000e+00 0.000000e+00
3.291139e+00 0.000000e+00 0.000000e+00
3.322785e+00 0.000000e+00 0.000000e+00
3.354430e+00 0.000000e+00 0.000000e+00
3.386076e+00 0.000000e+00 0.000000e+00
3.417722e+00 0.000000e+00 0.000000e+00
3.449367e+00 0.000000e+00 0.000000e+00
3.481013e+00 0.000000e+00 0.000000e+00
3.512658e+00 0.000000e+00 0.000000e+00
3.544304e+00 0.000000e+00 0.000000e+00
3.575949e+00 0.000000e+00 0.000000e+00
3.607595e+00 0.000000e+00 0.000000e+00
3.639241e+00 0.000000e+00 0.000000e+00
3.670886e+00 0.000000e+00 0.000000e+00
3.702532e+00 0.000000e+00 0.000000e+00
3.734177e+00 0.000000e+00 0.000000e+00
3.765823e+00 0.000000e+00 0.000000e+00
3.797468e+00 0.000000e+00 0.000000e+00
3.829114e+00 0.000000e+00 0.000000e+00
3.860759e+00 0.000000e+00 0.000000e+00
3.892405e+00 0.000000e+00 0.000000e+00
3.924051e+00 0.000000e+00 0.000000e+00
3.955696e+00 0.000000e+00 0.000000e+00
3.987342e+00 0.000000e+00 0.000000e+00
4.018987e+00 0.000000e+00 0.000000e+00
4.050633e+00 0.000000e+00 0.000000e+00
4.082278e+00 0.000000e+00 0.000000e+00
4.113924e+00 0.000000e+00 0.000000e+00
4.145570e+00 0.000000e+00 0.000000e+00
4.177215e+00 0.000000e+00 0.000000e+00
4.208861e+00 0.000000e+00 0.000000e+00
4.240506e+00 0.000000e+00 0.000000e+00
4.272152e+00 0.000000e+00 0.000000e+00
4.303797e+00 0.000000e+00 0.000000e+00
4.335443e+00 0.000000e+00 0.000000e+00
4.367089e+00 0.000000e+00 0.000000e+00
4.398734e+00 0.000000e+00 0.000000e+00
4.430380e+00 0.000000e+00 0.000000e+00
4.462025e+00 0.000000e+00 0.000000e+00
4.493671e+00 0.000000e+00 0.000000e+00
4.525316e+00 0.000000e+00 0.000000e+00
4.556962e+00 0.000000e+00 0.000000e+00
4.588608e+00 0.000000e+00 0.000000e+00
4.620253e+00 0.000000e+00 0.000000e+00
4.651899e+00 0.000000e+00 0.000000e+00
4.683544e+00 0.000000e+00 0.000000e+00
4.715190e+00 0.000000e+00 0.000000e+00
4.746835e+00 0.000000e+00 0.000000e+00
4.778481e+00 0.000000e+00 0.000000e+00
4.810127e+00 0.000000e+00 0.000000e+00
4.841772e+00 0.000000e+00 0.000000e+00
4.873418e+00 0.000000e+00 0.000000e+00
4.905063e+00 0.000000e+00 0.000000e+00
4.936709e+00 0.000000e+00 0.000000e+00
4.968354e+00 0.000000e+00 0.000000e+00
5.000000e+00 0.000000e+00 0.000000e+00
0.000000e+00 3.333333e-02 0.000000e+00
3.164557e-02 3.333333e-02 0.000000e+00
6.329114e-02 3.333333e-02 0.000000e+00
9.493671e-02 3.333333e-02 0.000000e+00
1.265823e-01 3.333333e-02 0.000000e+00
1.582278e-01 3.333333e-02 0.000000e+00
1.898734e-01 3.333333e-02 0.000000e+00
2.215190e-01 3.333333e-02 0.000000e+00
2.531646e-01 3.333333e-02 0.000000e+00
2.848101e-01 3.333333e-02 0.000000e+00
3.164557e-01 3.333333e-02 0.000000e+00
3.481013e-01 3.333333e-02 0.000000e+00
3.797468e-01 3.333333e-02 0.000000e+00
4.113924e-01 3.333333e-02 0.000000e+00
4.430380e-01 3.333333e-02 0.000000e+00
4.746835e-01 3.333333e-02 0.000000e+00
5.063291e-01 3.333333e-02 0.000000e+00
5.379747e-01 3.333333e-02 0.000000e+00
5.696203e-01 3.333333e-02 0.000000e+00
6.012658e-01 3.333333e-02 0.000000e+00
6.329114e-01 3.333333e-02 0.000000e+00
6.645570e-01 3.333333e-02 0.000000e+00
6.962025e-01 3.333333e-02 0.000000e+00
7.278481e-01 3.333333e-02 0.000000e+00
7.594937e-01 3.333333e-02 0.000000e+00
7.911392e-01 3.333333e-02 0.000000e+00
8.227848e-01 3.333333e-02 0.000000e+00
8.544304e-01 3.333333e-02 0.000000e+00
8.860759e-01 3.333333e-02 0.000000e+00
9.177215e-01 3.333333e-02 0.000000e+00
9.493671e-01 3.333333e-02 0.000000e+00
9.810127e-01 3.333333e-02 0.000000e+00
1.012658e+00 3.333333e-02 0.000000e+00
1.044304e+00 3.333333e-02 0.000000e+00
1.075949e+00 3.333333e-02 0.000000e+00
1.107595e+00 3.333333e-02 0.000000e+00
1.139241e+00 3.333333e-02 0.000000e+00
1.170886e+00 3.333333e-02 0.000000e+00
1.202532e+00 3.333333e-02 0.000000e+00
1.234177e+00 3.333333e-02 0.000000e+00
1.265823e+00 3.333333e-02 0.000000e+00
1.297468e+00 3.333333e-02 0.000000e+00
1.329114e+00 3.333333e-02 0.000000e+00
1.360759e+00 3.333333e-02 0.000000e+00
1.392405e+00 3.333333e-02 0.000000e+00
1.424051e+00 3.333333e-02 0.000000e+00
1.455696e+00 3.333333e-02 0.000000e+00
1.487342e+00 3.333333e-02 0.000000e+00
1.518987e+00 3.333333e-02 0.000000e+00
1.550633e+00 3.333333e-02 0.000000e+00
1.582278e+00 3.333333e-02 0.000000e+00
1.613924e+00 3.333333e-02 0.000000e+00
1.645570e+00 3.333333e-02 0.000000e+00
1.677215e+00 3.333333e-02 0.000000e+00
1.708861e+00 3.333333e-02 0.000000e+00
1.740506e+00 3.333333e-02 0.000000e+00
1.772152e+00 3.333333e-02 0.000000e+00
1.803797e+00 3.333333e-02 0.000000e+00
1.835443e+00 3.333333e-02 0.000000e+00
1.867089e+00 3.333333e-02 0.000000e+00
1.898734e+00 3.333333e-02 0.000000e+00
1.930380e+00 3.333333e-02 0.000000e+00
1.962025e+00 3.333333e-02 0.000000e+00
1.993671e+00 3.333333e-02 0.000000e+00
2.025316e+00 3.333333e-02 0.000000e+00
2.056962e+00 3.333333e-02 0.000000e+00
2.088608e+00 3.333333e-02 0.000000e+00
2.120253e+00 3.333333e-02 0.000000e+00
2.151899e+00 3.333333e-02 0.000000e+00
2.183544e+00 3.333333e-02 0.000000e+00
2.215190e+00 3.333333e-02 0.000000e+00
2.246835e+00 3.333333e-02 0.000000e+00
2.278481e+00 3.333333e-02 0.000000e+00
2.310127e+00 3.333333e-02 0.000000e+00
2.341772e+00 3.333333e-02 0.000000e+00
2.373418e+00 3.333333e-02 0.000000e+00
2.405063e+00 3.333333e-02 0.000000e+00
2.436709e+00 3.333333e-02 0.000000e+00
2.468354e+00 3.333333e-02 0.000000e+00
2.500000e+00 3.333333e-02 0.000000e+00
2.531646e+00 3.333333e-02 0.000000e+00
2.563291e+00 3.333333e-02 0.000000e+00
2.594937e+00 3.333333e-02 0.000000e+00
2.626582e+00 3.333333e-02 0.000000e+00
2.658228e+00 3.333333e-02 0.000000e+00
2.689873e+00 3.333333e-02 0.000000e+00
2.721519e+00 3.333333e-02 0.000000e+00
2.753165e+00 3.333333e-02 0.000000e+00
2.784810e+00 3.333333e-02 0.000000e+00
2.816456e+00 3.333333e-02 0.000000e+00
2.848101e+00 3.333333e-02 0.000000e+00
2.879747e+00 3.333333e-02 0.000000e+00
[...]
<PointData>
<DataArray Name="Velocity" type="Float64" format="ascii" NumberOfComponents="3">
0.000000e+00 0.000000e+00 0
0.000000e+00 0.000000e+00 0
0.000000e+00 0.000000e+00 0
0.000000e+00 0.000000e+00 0
0.000000e+00 0.000000e+00 0
0.000000e+00 0.000000e+00 0
0.000000e+00 0.000000e+00 0
0.000000e+00 0.000000e+00 0
0.000000e+00 0.000000e+00 0
0.000000e+00 0.000000e+00 0
0.000000e+00 0.000000e+00 0
0.000000e+00 0.000000e+00 0
0.000000e+00 0.000000e+00 0
0.000000e+00 0.000000e+00 0
0.000000e+00 0.000000e+00 0
0.000000e+00 0.000000e+00 0
0.000000e+00 0.000000e+00 0
0.000000e+00 0.000000e+00 0
0.000000e+00 0.000000e+00 0
3.362601e-17 0.000000e+00 0
0.000000e+00 0.000000e+00 0
0.000000e+00 0.000000e+00 0
0.000000e+00 0.000000e+00 0
-1.251647e-18 0.000000e+00 0
0.000000e+00 0.000000e+00 0
0.000000e+00 0.000000e+00 0
0.000000e+00 0.000000e+00 0
4.586134e-17 0.000000e+00 0
0.000000e+00 0.000000e+00 0
0.000000e+00 0.000000e+00 0
0.000000e+00 0.000000e+00 0
-2.197768e-18 0.000000e+00 0
0.000000e+00 0.000000e+00 0
0.000000e+00 0.000000e+00 0
0.000000e+00 0.000000e+00 0
0.000000e+00 0.000000e+00 0
0.000000e+00 0.000000e+00 0
0.000000e+00 0.000000e+00 0
-1.546733e-17 0.000000e+00 0
0.000000e+00 0.000000e+00 0
0.000000e+00 0.000000e+00 0
0.000000e+00 0.000000e+00 0
0.000000e+00 0.000000e+00 0
0.000000e+00 0.000000e+00 0
0.000000e+00 0.000000e+00 0
0.000000e+00 0.000000e+00 0
-1.250753e-17 0.000000e+00 0
0.000000e+00 0.000000e+00 0
0.000000e+00 0.000000e+00 0
0.000000e+00 0.000000e+00 0
0.000000e+00 0.000000e+00 0
0.000000e+00 0.000000e+00 0
0.000000e+00 0.000000e+00 0
0.000000e+00 0.000000e+00 0
2.669788e-17 0.000000e+00 0
0.000000e+00 0.000000e+00 0
0.000000e+00 0.000000e+00 0
0.000000e+00 0.000000e+00 0
0.000000e+00 0.000000e+00 0
0.000000e+00 0.000000e+00 0
0.000000e+00 0.000000e+00 0
0.000000e+00 0.000000e+00 0
-2.614790e-17 0.000000e+00 0
0.000000e+00 0.000000e+00 0
0.000000e+00 0.000000e+00 0
0.000000e+00 0.000000e+00 0
0.000000e+00 0.000000e+00 0
0.000000e+00 0.000000e+00 0
0.000000e+00 0.000000e+00 0
0.000000e+00 0.000000e+00 0
0.000000e+00 0.000000e+00 0
0.000000e+00 0.000000e+00 0
0.000000e+00 0.000000e+00 0
0.000000e+00 0.000000e+00 0
0.000000e+00 0.000000e+00 0
0.000000e+00 0.000000e+00 0
0.000000e+00 0.000000e+00 0
0.000000e+00 0.000000e+00 0
0.000000e+00 0.000000e+00 0
0.000000e+00 0.000000e+00 0
0.000000e+00 0.000000e+00 0
0.000000e+00 0.000000e+00 0
0.000000e+00 0.000000e+00 0
0.000000e+00 0.000000e+00 0
0.000000e+00 0.000000e+00 0
0.000000e+00 0.000000e+00 0
0.000000e+00 0.000000e+00 0
0.000000e+00 0.000000e+00 0
0.000000e+00 0.000000e+00 0
0.000000e+00 0.000000e+00 0
0.000000e+00 0.000000e+00 0
0.000000e+00 0.000000e+00 0
0.000000e+00 0.000000e+00 0
0.000000e+00 0.000000e+00 0
0.000000e+00 0.000000e+00 0
0.000000e+00 0.000000e+00 0
0.000000e+00 0.000000e+00 0
0.000000e+00 0.000000e+00 0
0.000000e+00 0.000000e+00 0
0.000000e+00 0.000000e+00 0
0.000000e+00 0.000000e+00 0
0.000000e+00 0.000000e+00 0
0.000000e+00 0.000000e+00 0
0.000000e+00 0.000000e+00 0
0.000000e+00 0.000000e+00 0
0.000000e+00 0.000000e+00 0
0.000000e+00 0.000000e+00 0
0.000000e+00 0.000000e+00 0
0.000000e+00 0.000000e+00 0
0.000000e+00 0.000000e+00 0
0.000000e+00 0.000000e+00 0
0.000000e+00 0.000000e+00 0
0.000000e+00 0.000000e+00 0
0.000000e+00 0.000000e+00 0
0.000000e+00 0.000000e+00 0
0.000000e+00 0.000000e+00 0
0.000000e+00 0.000000e+00 0
0.000000e+00 0.000000e+00 0
0.000000e+00 0.000000e+00 0
0.000000e+00 0.000000e+00 0
0.000000e+00 0.000000e+00 0
0.000000e+00 0.000000e+00 0
0.000000e+00 0.000000e+00 0
0.000000e+00 0.000000e+00 0
0.000000e+00 0.000000e+00 0
0.000000e+00 0.000000e+00 0
0.000000e+00 0.000000e+00 0
0.000000e+00 0.000000e+00 0
0.000000e+00 0.000000e+00 0
0.000000e+00 0.000000e+00 0
0.000000e+00 0.000000e+00 0
0.000000e+00 0.000000e+00 0
0.000000e+00 0.000000e+00 0
0.000000e+00 0.000000e+00 0
0.000000e+00 0.000000e+00 0
0.000000e+00 0.000000e+00 0
0.000000e+00 0.000000e+00 0
0.000000e+00 0.000000e+00 0
0.000000e+00 0.000000e+00 0
0.000000e+00 0.000000e+00 0
0.000000e+00 0.000000e+00 0
0.000000e+00 0.000000e+00 0
0.000000e+00 0.000000e+00 0
0.000000e+00 0.000000e+00 0
0.000000e+00 0.000000e+00 0
0.000000e+00 0.000000e+00 0
0.000000e+00 0.000000e+00 0
0.000000e+00 0.000000e+00 0
0.000000e+00 0.000000e+00 0
0.000000e+00 0.000000e+00 0
0.000000e+00 0.000000e+00 0
0.000000e+00 0.000000e+00 0
0.000000e+00 0.000000e+00 0
0.000000e+00 0.000000e+00 0
0.000000e+00 0.000000e+00 0
0.000000e+00 0.000000e+00 0
0.000000e+00 0.000000e+00 0
0.000000e+00 0.000000e+00 0
0.000000e+00 0.000000e+00 0
1.727585e+00 -4.694888e-05 0
1.727585e+00 -5.015692e-05 0
1.727627e+00 -4.504913e-05 0
1.727654e+00 -2.128485e-05 0
1.727655e+00 1.364962e-05 0
1.727619e+00 5.840445e-05 0
1.727536e+00 1.157321e-04 0
1.727391e+00 1.875758e-04 0
1.727170e+00 2.758465e-04 0
1.726856e+00 3.826236e-04 0
1.726432e+00 5.102438e-04 0
1.725875e+00 6.612981e-04 0
1.725163e+00 8.387019e-04 0
1.724269e+00 1.045798e-03 0
1.723161e+00 1.286363e-03 0
1.721808e+00 1.564681e-03 0
1.720171e+00 1.885712e-03 0
1.718206e+00 2.255192e-03 0
1.715864e+00 2.679787e-03 0
1.713090e+00 3.167425e-03 0
1.709819e+00 3.727621e-03 0
1.705978e+00 4.371775e-03 0
1.701479e+00 5.113495e-03 0
1.696223e+00 5.968745e-03 0
1.690093e+00 6.955390e-03 0
1.682954e+00 8.091563e-03 0
1.674651e+00 9.391607e-03 0
1.665017e+00 1.085691e-02 0
1.653888e+00 1.245802e-02 0
1.641141e+00 1.410361e-02 0
1.626772e+00 1.559697e-02 0
1.611037e+00 1.660332e-02 0
1.594626e+00 1.669938e-02 0
1.578743e+00 1.561168e-02 0
1.564720e+00 1.352517e-02 0
1.553241e+00 1.097034e-02 0
1.544353e+00 8.434328e-03 0
1.537752e+00 6.199508e-03 0
1.533016e+00 4.366207e-03 0
1.529738e+00 2.925946e-03 0
1.527570e+00 1.820270e-03 0
1.526236e+00 9.708910e-04 0
1.525535e+00 2.441530e-04 0
1.525309e+00 -4.106020e-04 0
1.525460e+00 -9.346134e-04 0
1.525891e+00 -1.315655e-03 0
1.526516e+00 -1.568288e-03 0
1.527259e+00 -1.711106e-03 0
1.528060e+00 -1.763034e-03 0
1.528869e+00 -1.741631e-03 0
1.529646e+00 -1.662425e-03 0
1.530358e+00 -1.538761e-03 0
1.530983e+00 -1.381901e-03 0
1.531503e+00 -1.201207e-03 0
1.531906e+00 -1.004278e-03 0
1.532183e+00 -7.966858e-04 0
1.532330e+00 -5.822703e-04 0
1.532354e+00 -3.662560e-04 0
1.532271e+00 -1.667598e-04 0
1.532090e+00 -1.404821e-05 0
1.531819e+00 9.381071e-05 0
1.531468e+00 1.819701e-04 0
1.531042e+00 2.603229e-04 0
1.530548e+00 3.322300e-04 0
1.529990e+00 3.990837e-04 0
1.529372e+00 4.615796e-04 0
1.528698e+00 5.201363e-04 0
1.527970e+00 5.750580e-04 0
1.527193e+00 6.265968e-04 0
1.526369e+00 6.749684e-04 0
1.525501e+00 7.203502e-04 0
1.524592e+00 7.628854e-04 0
1.523643e+00 8.026993e-04 0
1.522659e+00 8.399188e-04 0
1.521640e+00 8.746814e-04 0
1.520589e+00 9.071285e-04 0
1.519509e+00 9.373892e-04 0
1.518400e+00 9.655696e-04 0
1.517266e+00 9.917577e-04 0
1.516107e+00 1.016039e-03 0
1.514926e+00 1.038507e-03 0
1.513723e+00 1.059270e-03 0
1.512501e+00 1.078434e-03 0
1.511261e+00 1.096089e-03 0
1.510005e+00 1.112308e-03 0
1.508733e+00 1.127151e-03 0
1.507447e+00 1.140675e-03 0
1.506147e+00 1.152949e-03 0
1.504836e+00 1.164046e-03 0
1.503514e+00 1.174042e-03 0
1.502182e+00 1.183004e-03 0
1.500841e+00 1.190988e-03 0
1.499492e+00 1.198038e-03 0
1.498136e+00 1.204194e-03 0
1.496773e+00 1.209495e-03 0
1.495405e+00 1.213987e-03 0
1.494032e+00 1.217716e-03 0
1.492654e+00 1.220731e-03 0
1.491273e+00 1.223075e-03 0
1.489889e+00 1.224783e-03 0
1.488502e+00 1.225888e-03 0
1.487114e+00 1.226417e-03 0
1.485724e+00 1.226396e-03 0
1.484333e+00 1.225852e-03 0
1.482942e+00 1.224809e-03 0
1.481551e+00 1.223293e-03 0
1.480160e+00 1.221330e-03 0
1.478771e+00 1.218945e-03 0
1.477382e+00 1.216162e-03 0
1.475995e+00 1.213001e-03 0
1.474610e+00 1.209478e-03 0
1.473228e+00 1.205603e-03 0
1.471848e+00 1.201386e-03 0
1.470471e+00 1.196839e-03 0
1.469098e+00 1.191979e-03 0
1.467728e+00 1.186823e-03 0
1.466361e+00 1.181386e-03 0
1.464999e+00 1.175681e-03 0
1.463641e+00 1.169717e-03 0
1.462288e+00 1.163498e-03 0
1.460940e+00 1.157031e-03 0
1.459597e+00 1.150322e-03 0
1.458259e+00 1.143377e-03 0
1.456926e+00 1.136204e-03 0
1.455600e+00 1.128807e-03 0
1.454279e+00 1.121192e-03 0
1.452965e+00 1.113363e-03 0
1.451657e+00 1.105321e-03 0
1.450355e+00 1.097068e-03 0
1.449060e+00 1.088607e-03 0
1.447773e+00 1.079937e-03 0
1.446492e+00 1.071059e-03 0
1.445219e+00 1.061972e-03 0
1.443954e+00 1.052677e-03 0
1.442696e+00 1.043171e-03 0
1.441447e+00 1.033454e-03 0
1.440206e+00 1.023522e-03 0
1.438973e+00 1.013374e-03 0
1.437749e+00 1.003004e-03 0
1.436534e+00 9.924072e-04 0
1.435328e+00 9.815771e-04 0
1.434131e+00 9.705045e-04 0
1.432944e+00 9.591776e-04 0
1.431767e+00 9.475795e-04 0
1.430600e+00 9.356872e-04 0
1.429444e+00 9.234677e-04 0
1.428298e+00 9.108731e-04 0
1.427164e+00 8.978336e-04 0
1.426041e+00 8.842470e-04 0
1.424931e+00 8.699577e-04 0
1.423833e+00 8.547293e-04 0
1.422750e+00 8.381881e-04 0
1.421682e+00 8.197093e-04 0
1.420632e+00 7.981734e-04 0
1.419603e+00 7.711565e-04 0
1.418600e+00 7.341398e-04 0
1.417633e+00 6.438945e-04 0
1.416716e+00 7.394045e-04 0
1.416716e+00 9.034459e-04 0
2.689364e+00 -9.284289e-05 0
2.689364e+00 -9.005974e-05 0
2.689399e+00 -7.166956e-05 0
2.689422e+00 -2.908605e-05 0
2.689425e+00 3.624928e-05 0
2.689397e+00 1.253348e-04 0
2.689326e+00 2.406010e-04 0
2.689201e+00 3.851586e-04 0
2.689010e+00 5.626081e-04 0
2.688736e+00 7.770977e-04 0
2.688365e+00 1.033306e-03 0
2.687877e+00 1.336491e-03 0
2.687251e+00 1.692617e-03 0
2.686464e+00 2.108393e-03 0
2.685488e+00 2.591367e-03 0
2.684294e+00 3.150163e-03 0
2.682848e+00 3.794667e-03 0
2.681111e+00 4.536302e-03 0
2.679041e+00 5.388499e-03 0
2.676589e+00 6.367241e-03 0
2.673696e+00 7.491668e-03 0
2.670299e+00 8.784805e-03 0
2.666322e+00 1.027429e-02 0
2.661676e+00 1.199268e-02 0
2.656255e+00 1.397697e-02 0
2.649935e+00 1.626609e-02 0
2.642569e+00 1.889348e-02 0
2.633980e+00 2.187027e-02 0
2.623970e+00 2.514987e-02 0
2.612329e+00 2.856182e-02 0
2.598897e+00 3.170876e-02 0
2.583721e+00 3.386097e-02 0
2.567397e+00 3.401713e-02 0
2.551545e+00 3.150098e-02 0
2.538274e+00 2.686191e-02 0
2.528127e+00 2.145356e-02 0
2.520731e+00 1.631586e-02 0
2.515475e+00 1.194108e-02 0
2.511805e+00 8.440393e-03 0
2.509287e+00 5.737307e-03 0
2.507604e+00 3.688996e-03 0
2.506522e+00 2.143450e-03 0
2.505865e+00 9.774817e-04 0
2.505440e+00 7.923118e-05 0
2.505142e+00 -6.137085e-04 0
2.504924e+00 -1.112153e-03 0
2.504753e+00 -1.441017e-03 0
2.504607e+00 -1.627062e-03 0
2.504469e+00 -1.695635e-03 0
2.504324e+00 -1.669454e-03 0
2.504161e+00 -1.568291e-03 0
2.503973e+00 -1.409056e-03 0
2.503752e+00 -1.206074e-03 0
2.503493e+00 -9.714876e-04 0
2.503194e+00 -7.157101e-04 0
2.502853e+00 -4.471146e-04 0
2.502477e+00 -1.806182e-04 0
2.502072e+00 6.288159e-05 0
2.501639e+00 2.788636e-04 0
2.501171e+00 4.754219e-04 0
2.500645e+00 6.549639e-04 0
2.500056e+00 8.183834e-04 0
2.499405e+00 9.687347e-04 0
2.498696e+00 1.108447e-03 0
2.497931e+00 1.239062e-03 0
2.497113e+00 1.361568e-03 0
2.496245e+00 1.476652e-03 0
2.495331e+00 1.584849e-03 0
2.494372e+00 1.686601e-03 0
2.493372e+00 1.782281e-03 0
2.492333e+00 1.872209e-03 0
2.491256e+00 1.956661e-03 0
2.490144e+00 2.035896e-03 0
2.489000e+00 2.110172e-03 0
2.487824e+00 2.179747e-03 0
2.486620e+00 2.244871e-03 0
2.485388e+00 2.305771e-03 0
2.484131e+00 2.362646e-03 0
2.482849e+00 2.415683e-03 0
2.481545e+00 2.465063e-03 0
2.480220e+00 2.510980e-03 0
2.478876e+00 2.553625e-03 0
2.477513e+00 2.593180e-03 0
2.476132e+00 2.629806e-03 0
2.474736e+00 2.663642e-03 0
2.473325e+00 2.694818e-03 0
2.471900e+00 2.723465e-03 0
2.470462e+00 2.749716e-03 0
2.469012e+00 2.773710e-03 0
2.467551e+00 2.795575e-03 0
2.466080e+00 2.815428e-03 0
2.464600e+00 2.833367e-03 0
2.463111e+00 2.849485e-03 0
2.461615e+00 2.863868e-03 0
2.460111e+00 2.876603e-03 0
2.458600e+00 2.887781e-03 0
2.457084e+00 2.897488e-03 0
2.455563e+00 2.905806e-03 0
2.454036e+00 2.912810e-03 0
2.452506e+00 2.918566e-03 0
2.450972e+00 2.923136e-03 0
2.449434e+00 2.926576e-03 0
2.447894e+00 2.928940e-03 0
2.446352e+00 2.930280e-03 0
2.444807e+00 2.930646e-03 0
2.443261e+00 2.930087e-03 0
2.441714e+00 2.928651e-03 0
2.440167e+00 2.926382e-03 0
2.438618e+00 2.923322e-03 0
2.437070e+00 2.919503e-03 0
2.435522e+00 2.914956e-03 0
2.433974e+00 2.909705e-03 0
2.432427e+00 2.903777e-03 0
2.430881e+00 2.897201e-03 0
2.429337e+00 2.890006e-03 0
2.427794e+00 2.882220e-03 0
2.426253e+00 2.873867e-03 0
2.424714e+00 2.864966e-03 0
2.423178e+00 2.855533e-03 0
2.421644e+00 2.845582e-03 0
2.420113e+00 2.835126e-03 0
2.418585e+00 2.824179e-03 0
2.417060e+00 2.812754e-03 0
2.415538e+00 2.800861e-03 0
2.414020e+00 2.788509e-03 0
2.412506e+00 2.775708e-03 0
2.410996e+00 2.762462e-03 0
2.409490e+00 2.748776e-03 0
2.407989e+00 2.734652e-03 0
2.406492e+00 2.720094e-03 0
2.405000e+00 2.705102e-03 0
2.403513e+00 2.689674e-03 0
2.402031e+00 2.673812e-03 0
2.400555e+00 2.657512e-03 0
2.399084e+00 2.640771e-03 0
2.397619e+00 2.623585e-03 0
2.396160e+00 2.605948e-03 0
2.394708e+00 2.587853e-03 0
2.393261e+00 2.569293e-03 0
2.391822e+00 2.550254e-03 0
2.390389e+00 2.530723e-03 0
2.388963e+00 2.510682e-03 0
2.387545e+00 2.490106e-03 0
2.386134e+00 2.468961e-03 0
2.384731e+00 2.447200e-03 0
2.383336e+00 2.424757e-03 0
2.381949e+00 2.401537e-03 0
2.380572e+00 2.377401e-03 0
2.379203e+00 2.352146e-03 0
2.377844e+00 2.325469e-03 0
2.376496e+00 2.296910e-03 0
2.375158e+00 2.265752e-03 0
2.373833e+00 2.230836e-03 0
2.372521e+00 2.190210e-03 0
2.371224e+00 2.140461e-03 0
2.369945e+00 2.075302e-03 0
2.368682e+00 1.985051e-03 0
2.367401e+00 1.968690e-03 0
2.367401e+00 2.005120e-03 0
3.196692e+00 -1.408347e-04 0
3.196692e+00 -1.342922e-04 0
3.196735e+00 -1.063951e-04 0
3.196768e+00 -4.853807e-05 0
3.196787e+00 4.041639e-05 0
3.196783e+00 1.626421e-04 0
3.196751e+00 3.213413e-04 0
3.196680e+00 5.206203e-04 0
3.196562e+00 7.654532e-04 0
3.196386e+00 1.061590e-03 0
3.196140e+00 1.415548e-03 0
3.195810e+00 1.834728e-03 0
3.195380e+00 2.327434e-03 0
3.194832e+00 2.902937e-03 0
3.194148e+00 3.571693e-03 0
3.193305e+00 4.345547e-03 0
3.192277e+00 5.237997e-03 0
3.191039e+00 6.264681e-03 0
3.189558e+00 7.443967e-03 0
3.187799e+00 8.797691e-03 0
3.185723e+00 1.035210e-02 0
3.183285e+00 1.213903e-02 0
3.180431e+00 1.419709e-02 0
3.177099e+00 1.657292e-02 0
3.173212e+00 1.932201e-02 0
3.168677e+00 2.250799e-02 0
3.163368e+00 2.619791e-02 0
3.157115e+00 3.044756e-02 0
3.149667e+00 3.526343e-02 0
3.140657e+00 4.051286e-02 0
3.129552e+00 4.573114e-02 0
3.115741e+00 4.978437e-02 0
3.099139e+00 5.059107e-02 0
3.082280e+00 4.628799e-02 0
3.070165e+00 3.819302e-02 0
3.062536e+00 2.944931e-02 0
3.057920e+00 2.176008e-02 0
3.055124e+00 1.560065e-02 0
3.053412e+00 1.088411e-02 0
3.052356e+00 7.351532e-03 0
3.051714e+00 4.733662e-03 0
3.051336e+00 2.802742e-03 0
3.051118e+00 1.383749e-03 0
3.050991e+00 3.509983e-04 0
3.050882e+00 -3.907879e-04 0
3.050763e+00 -9.064122e-04 0
3.050621e+00 -1.235296e-03 0
3.050452e+00 -1.411413e-03 0
3.050254e+00 -1.463824e-03 0
3.050029e+00 -1.417259e-03 0
3.049776e+00 -1.292665e-03 0
3.049496e+00 -1.107703e-03 0
3.049190e+00 -8.772109e-04 0
3.048859e+00 -6.138971e-04 0
3.048504e+00 -3.294616e-04 0
3.048129e+00 -4.108636e-05 0
3.047735e+00 2.405499e-04 0
3.047316e+00 5.162547e-04 0
3.046860e+00 7.820022e-04 0
3.046361e+00 1.032992e-03 0
3.045818e+00 1.268194e-03 0
3.045229e+00 1.487824e-03 0
3.044595e+00 1.693181e-03 0
3.043917e+00 1.885699e-03 0
3.043196e+00 2.066572e-03 0
3.042435e+00 2.236735e-03 0
3.041636e+00 2.396941e-03 0
3.040801e+00 2.547819e-03 0
3.039931e+00 2.689913e-03 0
3.039029e+00 2.823694e-03 0
3.038096e+00 2.949577e-03 0
3.037135e+00 3.067940e-03 0
3.036145e+00 3.179146e-03 0
3.035130e+00 3.283554e-03 0
3.034091e+00 3.381512e-03 0
3.033029e+00 3.473348e-03 0
3.031945e+00 3.559362e-03 0
3.030841e+00 3.639829e-03 0
3.029718e+00 3.715014e-03 0
3.028577e+00 3.785180e-03 0
3.027419e+00 3.850594e-03 0
3.026246e+00 3.911511e-03 0
3.025057e+00 3.968169e-03 0
3.023855e+00 4.020780e-03 0
3.022640e+00 4.069539e-03 0
3.021412e+00 4.114635e-03 0
3.020174e+00 4.156255e-03 0
3.018925e+00 4.194589e-03 0
3.017665e+00 4.229817e-03 0
3.016397e+00 4.262110e-03 0
3.015121e+00 4.291618e-03 0
3.013836e+00 4.318479e-03 0
3.012544e+00 4.342822e-03 0
3.011245e+00 4.364773e-03 0
3.009941e+00 4.384457e-03 0
3.008630e+00 4.401996e-03 0
3.007314e+00 4.417505e-03 0
3.005993e+00 4.431095e-03 0
3.004668e+00 4.442862e-03 0
3.003339e+00 4.452898e-03 0
3.002007e+00 4.461288e-03 0
3.000671e+00 4.468112e-03 0
2.999332e+00 4.473443e-03 0
2.997991e+00 4.477355e-03 0
2.996648e+00 4.479917e-03 0
2.995302e+00 4.481196e-03 0
2.993955e+00 4.481258e-03 0
2.992607e+00 4.480162e-03 0
2.991258e+00 4.477960e-03 0
2.989908e+00 4.474697e-03 0
2.988557e+00 4.470413e-03 0
2.987206e+00 4.465147e-03 0
2.985854e+00 4.458938e-03 0
2.984503e+00 4.451828e-03 0
2.983152e+00 4.443855e-03 0
2.981802e+00 4.435056e-03 0
2.980452e+00 4.425458e-03 0
2.979103e+00 4.415086e-03 0
2.977756e+00 4.403962e-03 0
2.976409e+00 4.392107e-03 0
2.975064e+00 4.379542e-03 0
2.973720e+00 4.366284e-03 0
2.972379e+00 4.352349e-03 0
2.971039e+00 4.337753e-03 0
2.969701e+00 4.322506e-03 0
2.968365e+00 4.306618e-03 0
2.967032e+00 4.290098e-03 0
2.965701e+00 4.272950e-03 0
2.964373e+00 4.255179e-03 0
2.963048e+00 4.236786e-03 0
2.961726e+00 4.217773e-03 0
2.960407e+00 4.198137e-03 0
2.959091e+00 4.177879e-03 0
2.957779e+00 4.156993e-03 0
2.956471e+00 4.135475e-03 0
2.955166e+00 4.113319e-03 0
2.953865e+00 4.090515e-03 0
2.952568e+00 4.067055e-03 0
2.951276e+00 4.042925e-03 0
2.949988e+00 4.018110e-03 0
2.948705e+00 3.992591e-03 0
2.947426e+00 3.966343e-03 0
2.946153e+00 3.939332e-03 0
2.944884e+00 3.911515e-03 0
2.943621e+00 3.882832e-03 0
2.942364e+00 3.853195e-03 0
2.941112e+00 3.822484e-03 0
2.939867e+00 3.790526e-03 0
2.938628e+00 3.757067e-03 0
2.937395e+00 3.721739e-03 0
2.936169e+00 3.683995e-03 0
2.934950e+00 3.643016e-03 0
2.933738e+00 3.597574e-03 0
2.932533e+00 3.545818e-03 0
2.931336e+00 3.485067e-03 0
2.930144e+00 3.411949e-03 0
2.928951e+00 3.323269e-03 0
2.927748e+00 3.238946e-03 0
2.927748e+00 3.203201e-03 0
3.469880e+00 -1.940801e-04 0
3.469880e+00 -1.854899e-04 0
3.469932e+00 -1.517566e-04 0
3.469977e+00 -8.391327e-05 0
3.470014e+00 2.005188e-05 0
3.470038e+00 1.630826e-04 0
3.470044e+00 3.493190e-04 0
3.470027e+00 5.837321e-04 0
3.469982e+00 8.723118e-04 0
3.469899e+00 1.221990e-03 0
3.469773e+00 1.640712e-03 0
3.469591e+00 2.137408e-03 0
3.469345e+00 2.721995e-03 0
3.469020e+00 3.405534e-03 0
3.468605e+00 4.200382e-03 0
3.468084e+00 5.120383e-03 0
3.467439e+00 6.181247e-03 0
3.466654e+00 7.401061e-03 0
3.465707e+00 8.800970e-03 0
3.464578e+00 1.040608e-02 0
3.463241e+00 1.224665e-02 0
3.461672e+00 1.435963e-02 0
3.459839e+00 1.679054e-02 0
3.457708e+00 1.959613e-02 0
3.455234e+00 2.284765e-02 0
3.452360e+00 2.663518e-02 0
3.448998e+00 3.107266e-02 0
3.445009e+00 3.630182e-02 0
3.440135e+00 4.248509e-02 0
3.433879e+00 4.975003e-02 0
3.425239e+00 5.795395e-02 0
3.412274e+00 6.589605e-02 0
3.391997e+00 6.926265e-02 0
3.368114e+00 6.202121e-02 0
3.356842e+00 4.765914e-02 0
3.352816e+00 3.435133e-02 0
3.351865e+00 2.412230e-02 0
3.352033e+00 1.668928e-02 0
3.352530e+00 1.135609e-02 0
3.353068e+00 7.525302e-03 0
3.353550e+00 4.764164e-03 0
3.353949e+00 2.772165e-03 0
3.354258e+00 1.341391e-03 0
3.354477e+00 3.274528e-04 0
3.354613e+00 -3.738923e-04 0
3.354666e+00 -8.372179e-04 0
3.354642e+00 -1.113433e-03 0
3.354551e+00 -1.240884e-03 0
3.354402e+00 -1.249907e-03 0
3.354205e+00 -1.165187e-03 0
3.353965e+00 -1.007111e-03 0
3.353691e+00 -7.926022e-04 0
3.353386e+00 -5.354153e-04 0
3.353056e+00 -2.483452e-04 0
3.352704e+00 5.372440e-05 0
3.352331e+00 3.628359e-04 0
3.351932e+00 6.753506e-04 0
3.351504e+00 9.846006e-04 0
3.351048e+00 1.285238e-03 0
3.350561e+00 1.573446e-03 0
3.350043e+00 1.847370e-03 0
3.349492e+00 2.106449e-03 0
3.348909e+00 2.350988e-03 0
3.348294e+00 2.581675e-03 0
3.347647e+00 2.799281e-03 0
3.346971e+00 3.004549e-03 0
3.346266e+00 3.198170e-03 0
3.345534e+00 3.380775e-03 0
3.344776e+00 3.552937e-03 0
3.343994e+00 3.715172e-03 0
3.343189e+00 3.867952e-03 0
3.342362e+00 4.011725e-03 0