<?xml version="1.0"?>
<VTKFile type="StructuredGrid">
<StructuredGrid WholeExtent="0 158 0 30 0 0 ">
<Piece Extent="0 158 0 30 0 0 ">
<Points>
<DataArray type="Float64" format="ascii" NumberOfComponents="3">
0.000000e+00 0.000000e+00 0.000000e+00
3.164557e-02 0.000000e+00 0.000000e+00
6.329114e-02 0.000000e+00 0.000000e+00
9.493671e-02 0.000000e+00 0.000000e+00
1.265823e-01 0.000000e+00 0.000000e+00
1.582278e-01 0.000000e+00 0.000000e+00
1.898734e-01 0.000000e+00 0.000000e+00
2.215190e-01 0.000000e+00 0.000000e+00
2.531646e-01 0.000000e+00 0.000000e+00
2.848101e-01 0.000000e+00 0.000000e+00
3.164557e-01 0.000000e+00 0.000000e+00
3.481013e-01 0.000000e+00 0.000000e+00
3.797468e-01 0.000000e+00 0.000000e+00
4.113924e-01 0.000000e+00 0.000000e+00
4.430380e-01 0.000000e+00 0.000000e+00
4.746835e-01 0.000000e+00 0.000000e+00
5.063291e-01 0.000000e+00 0.000000e+00
5.379747e-01 0.000000e+00 0.000000e+00
5.696203e-01 0.000000e+00 0.000000e+00
6.012658e-01 0.000000e+00 0.000000e+00
6.329114e-01 0.000000e+00 0.000000e+00
6.645570e-01 0.000000e+00 0.000000e+00
6.962025e-01 0.000000e+00 0.000000e+00
7.278481e-01 0.000000e+00 0.000000e+00
7.594937e-01 0.000000e+00 0.000000e+00
7.911392e-01 0.000000e+00 0.000000e+00
8.227848e-01 0.000000e+00 0.000000e+00
8.544304e-01 0.000000e+00 0.000000e+00
8.860759e-01 0.000000e+00 0.000000e+00
9.177215e-01 0.000000e+00 0.000000e+00
9.493671e-01 0.000000e+00 0.000000e+00
9.810127e-01 0.000000e+00 0.000000e+00
1.012658e+00 0.000000e+00 0.000000e+00
1.044304e+00 0.000000e+00 0.000000e+00
1.075949e+00 0.000000e+00 0.000000e+00
1.107595e+00 0.000000e+00 0.000000e+00
1.139241e+00 0.000000e+00 0.000000e+00
1.170886e+00 0.000000e+00 0.000000e+00
1.202532e+00 0.000000e+00 0.000000e+00
1.234177e+00 0.000000e+00 0.000000e+00
1.265823e+00 0.000000e+00 0.000000e+00
1.297468e+00 0.000000e+00 0.000000e+00
1.329114e+00 0.000000e+00 0.000000e+00
1.360759e+00 0.000000e+00 0.000000e+00
1.392405e+00 0.000000e+00 0.000000e+00
1.424051e+00 0.000000e+00 0.000000e+00
1.455696e+00 0.000000e+00 0.000000e+00
1.487342e+00 0.000000e+00 0.000000e+00
1.518987e+00 0.000000e+00 0.000000e+00
1.550633e+00 0.000000e+00 0.000000e+00
1.582278e+00 0.000000e+00 0.000000e+00
1.613924e+00 0.000000e+00 0.000000e+00
1.645570e+00 0.000000e+00 0.000000e+00
1.677215e+00 0.000000e+00 0.000000e+00
1.708861e+00 0.000000e+00 0.000000e+00
1.740506e+00 0.000000e+00 0.000000e+00
1.772152e+00 0.000000e+00 0.000000e+00
1.803797e+00 0.000000e+00 0.000000e+00
1.835443e+00 0.000000e+00 0.000000e+00
1.867089e+00 0.000000e+00 0.000000e+00
1.898734e+00 0.000000e+00 0.000000e+00
1.930380e+00 0.000000e+00 0.000000e+00
1.962025e+00 0.000000e+00 0.000000e+00
1.993671e+00 0.000000e+00 0.000000e+00
2.025316e+00 0.000000e+00 0.000000e+00
2.056962e+00 0.000000e+00 0.000000e+00
2.088608e+00 0.000000e+00 0.000000e+00
2.120253e+00 0.000000e+00 0.000000e+00
2.151899e+00 0.000000e+00 0.000000e+00
2.183544e+00 0.000000e+00 0.000000e+00
2.215190e+00 0.000000e+00 0.000000e+00
2.246835e+00 0.000000e+00 0.000000e+00
2.278481e+00 0.000000e+00 0.000000e+00
2.310127e+00 0.000000e+00 0.000000e+00
2.341772e+00 0.000000e+00 0.000000e+00
2.373418e+00 0.000000e+00 0.000000e+00
2.405063e+00 0.000000e+00 0.000000e+00
2.436709e+00 0.000000e+00 0.000000e+00
2.468354e+00 0.000000e+00 0.000000e+00
2.500000e+00 0.000000e+00 0.000000e+00
2.531646e+00 0.000000e+00 0.000000e+00
2.563291e+00 0.000000e+00 0.000000e+00
2.594937e+00 0.000000e+00 0.000000e+00
2.626582e+00 0.000000e+00 0.000000e+00
2.658228e+00 0.000000e+00 0.000000e+00
2.689873e+00 0.000000e+00 0.000000e+00
2.721519e+00 0.000000e+00 0.000000e+00
2.753165e+00 0.000000e+00 0.000000e+00
2.784810e+00 0.000000e+00 0.000000e+00
2.816456e+00 0.000000e+00 0.000000e+00
2.848101e+00 0.000000e+00 0.000000e+00
2.879747e+00 0.000000e+00 0.000000e+00
2.911392e+00 0.000000e+00 0.000000e+00
2.943038e+00 0.000000e+00 0.000000e+00
2.974684e+00 0.000000e+00 0.000000e+00
3.006329e+00 0.000000e+00 0.000000e+00
3.037975e+00 0.000000e+00 0.000000e+00
3.069620e+00 0.000000e+00 0.000000e+00
3.101266e+00 0.000000e+00 0.000000e+00
3.132911e+00 0.000000e+00 0.000000e+00
3.164557e+00 0.000000e+00 0.000000e+00
3.196203e+00 0.000000e+00 0.000000e+00
3.227848e+00 0.000000e+00 0.000000e+00
3.259494e+00 0.000000e+00 0.000000e+00
3.291139e+00 0.000000e+00 0.000000e+00
3.322785e+00 0.000000e+00 0.000000e+00
3.354430e+00 0.000000e+00 0.000000e+00
3.386076e+00 0.000000e+00 0.000000e+00
3.417722e+00 0.000000e+00 0.000000e+00
3.449367e+00 0.000000e+00 0.000000e+00
3.481013e+00 0.000000e+00 0.000000e+00
3.512658e+00 0.000000e+00 0.000000e+00
3.544304e+00 0.000000e+00 0.000000e+00
3.575949e+00 0.000000e+00 0.000000e+00
3.607595e+00 0.000000e+00 0.000000e+00
3.639241e+00 0.000000e+00 0.000000e+00
3.670886e+00 0.000000e+00 0.000000e+00
3.702532e+00 0.000000e+00 0.000000e+00
3.734177e+00 0.000000e+00 0.000000e+00
3.765823e+00 0.000000e+00 0.000000e+00
3.797468e+00 0.000000e+00 0.000000e+00
3.829114e+00 0.000000e+00 0.000000e+00
3.860759e+00 0.000000e+00 0.000000e+00
3.892405e+00 0.000000e+00 0.000000e+00
3.924051e+00 0.000000e+00 0.000000e+00
3.955696e+00 0.000000e+00 0.000000e+00
3.987342e+00 0.000000e+00 0.000000e+00
4.018987e+00 0.000000e+00 0.000000e+00
4.050633e+00 0.000000e+00 0.000000e+00
4.082278e+00 0.000000e+00 0.000000e+00
4.113924e+00 0.000000e+00 0.000000e+00
4.145570e+00 0.000000e+00 0.000000e+00
4.177215e+00 0.000000e+00 0.000000e+00
4.208861e+00 0.000000e+00 0.000000e+00
4.240506e+00 0.000000e+00 0.000000e+00
4.272152e+00 0.000000e+00 0.000000e+00
4.303797e+00 0.000000e+00 0.000000e+00
4.335443e+00 0.000000e+00 0.000000e+00
4.367089e+00 0.000000e+00 0.000000e+00
4.398734e+00 0.000000e+00 0.000000e+00
4.430380e+00 0.000000e+00 0.000000e+00
4.462025e+00 0.000000e+00 0.000000e+00
4.493671e+00 0.000000e+00 0.000000e+00
4.525316e+00 0.000000e+00 0.000000e+00
4.556962e+00 0.000000e+00 0.000000e+00
4.588608e+00 0.000000e+00 0.000000e+00
4.620253e+00 0.000000e+00 0.000000e+00
4.651899e+00 0.000000e+00 0.000000e+00
4.683544e+00 0.000000e+00 0.000000e+00
4.715190e+00 0.000000e+00 0.000000e+00
4.746835e+00 0.000000e+00 0.000000e+00
4.778481e+00 0.000000e+00 0.000000e+00
4.810127e+00 0.000000e+00 0.000000e+00
4.841772e+00 0.000000e+00 0.000000e+00
4.873418e+00 0.000000e+00 0.000000e+00
4.905063e+00 0.000000e+00 0.000000e+00
4.936709e+00 0.000000e+00 0.000000e+00
4.968354e+00 0.000000e+00 0.000000e+00
5.000000e+00 0.000000e+00 0.000000e+00
0.000000e+00 3.333333e-02 0.000000e+00
3.164557e-02 3.333333e-02 0.000000e+00
6.329114e-02 3.333333e-02 0.000000e+00
9.493671e-02 3.333333e-02 0.000000e+00
1.265823e-01 3.333333e-02 0.000000e+00
1.582278e-01 3.333333e-02 0.000000e+00
1.898734e-01 3.333333e-02 0.000000e+00
2.215190e-01 3.333333e-02 0.000000e+00
2.531646e-01 3.333333e-02 0.000000e+00
2.848101e-01 3.333333e-02 0.000000e+00
3.164557e-01 3.333333e-02 0.000000e+00
3.481013e-01 3.333333e-02 0.000000e+00
3.797468e-01 3.333333e-02 0.000000e+00
4.113924e-01 3.333333e-02 0.000000e+00
4.430380e-01 3.333333e-02 0.000000e+00
4.746835e-01 3.333333e-02 0.000000e+00
5.063291e-01 3.333333e-02 0.000000e+00
5.379747e-01 3.333333e-02 0.000000e+00
5.696203e-01 3.333333e-02 0.000000e+00
6.012658e-01 3.333333e-02 0.000000e+00
6.329114e-01 3.333333e-02 0.000000e+00
6.645570e-01 3.333333e-02 0.000000e+00
6.962025e-01 3.333333e-02 0.000000e+00
7.278481e-01 3.333333e-02 0.000000e+00
7.594937e-01 3.333333e-02 0.000000e+00
7.911392e-01 3.333333e-02 0.000000e+00
8.227848e-01 3.333333e-02 0.000000e+00
8.544304e-01 3.333333e-02 0.000000e+00
8.860759e-01 3.333333e-02 0.000000e+00
9.177215e-01 3.333333e-02 0.000000e+00
9.493671e-01 3.333333e-02 0.000000e+00
9.810127e-01 3.333333e-02 0.000000e+00
1.012658e+00 3.333333e-02 0.000000e+00
1.044304e+00 3.333333e-02 0.000000e+00
1.075949e+00 3.333333e-02 0.000000e+00
1.107595e+00 3.333333e-02 0.000000e+00
1.139241e+00 3.333333e-02 0.000000e+00
1.170886e+00 3.333333e-02 0.000000e+00
1.202532e+00 3.333333e-02 0.000000e+00
1.234177e+00 3.333333e-02 0.000000e+00
1.265823e+00 3.333333e-02 0.000000e+00
1.297468e+00 3.333333e-02 0.000000e+00
1.329114e+00 3.333333e-02 0.000000e+00
1.360759e+00 3.333333e-02 0.000000e+00
1.392405e+00 3.333333e-02 0.000000e+00
1.424051e+00 3.333333e-02 0.000000e+00
1.455696e+00 3.333333e-02 0.000000e+00
1.487342e+00 3.333333e-02 0.000000e+00
1.518987e+00 3.333333e-02 0.000000e+00
1.550633e+00 3.333333e-02 0.000000e+00
1.582278e+00 3.333333e-02 0.000000e+00
1.613924e+00 3.333333e-02 0.000000e+00
1.645570e+00 3.333333e-02 0.000000e+00
1.677215e+00 3.333333e-02 0.000000e+00
1.708861e+00 3.333333e-02 0.000000e+00
1.740506e+00 3.333333e-02 0.000000e+00
1.772152e+00 3.333333e-02 0.000000e+00
1.803797e+00 3.333333e-02 0.000000e+00
1.835443e+00 3.333333e-02 0.000000e+00
1.867089e+00 3.333333e-02 0.000000e+00
1.898734e+00 3.333333e-02 0.000000e+00
1.930380e+00 3.333333e-02 0.000000e+00
1.962025e+00 3.333333e-02 0.000000e+00
1.993671e+00 3.333333e-02 0.000000e+00
2.025316e+00 3.333333e-02 0.000000e+00
2.056962e+00 3.333333e-02 0.000000e+00
2.088608e+00 3.333333e-02 0.000000e+00
2.120253e+00 3.333333e-02 0.000000e+00
2.151899e+00 3.333333e-02 0.000000e+00
2.183544e+00 3.333333e-02 0.000000e+00
2.215190e+00 3.333333e-02 0.000000e+00
2.246835e+00 3.333333e-02 0.000000e+00
2.278481e+00 3.333333e-02 0.000000e+00
2.310127e+00 3.333333e-02 0.000000e+00
2.341772e+00 3.333333e-02 0.000000e+00
2.373418e+00 3.333333e-02 0.000000e+00
2.405063e+00 3.333333e-02 0.000000e+00
2.436709e+00 3.333333e-02 0.000000e+00
2.468354e+00 3.333333e-02 0.000000e+00
2.500000e+00 3.333333e-02 0.000000e+00
2.531646e+00 3.333333e-02 0.000000e+00
2.563291e+00 3.333333e-02 0.000000e+00
2.594937e+00 3.333333e-02 0.000000e+00
2.626582e+00 3.333333e-02 0.000000e+00
2.658228e+00 3.333333e-02 0.000000e+00
2.689873e+00 3.333333e-02 0.000000e+00
2.721519e+00 3.333333e-02 0.000000e+00
2.753165e+00 3.333333e-02 0.000000e+00
2.784810e+00 3.333333e-02 0.000000e+00
2.816456e+00 3.333333e-02 0.000000e+00
2.848101e+00 3.333333e-02 0.000000e+00
2.879747e+00 3.333333e-02 0.000000e+00
[...]
<PointData>
<DataArray Name="Velocity" type="Float64" format="ascii" NumberOfComponents="3">
0.000000e+00 0.000000e+00 0
0.000000e+00 0.000000e+00 0
0.000000e+00 0.000000e+00 0
0.000000e+00 0.000000e+00 0
0.000000e+00 0.000000e+00 0
0.000000e+00 0.000000e+00 0
0.000000e+00 0.000000e+00 0
0.000000e+00 0.000000e+00 0
0.000000e+00 0.000000e+00 0
0.000000e+00 0.000000e+00 0
0.000000e+00 0.000000e+00 0
0.000000e+00 0.000000e+00 0
0.000000e+00 0.000000e+00 0
0.000000e+00 0.000000e+00 0
0.000000e+00 0.000000e+00 0
0.000000e+00 0.000000e+00 0
0.000000e+00 0.000000e+00 0
0.000000e+00 0.000000e+00 0
0.000000e+00 0.000000e+00 0
-2.616625e-18 0.000000e+00 0
0.000000e+00 0.000000e+00 0
0.000000e+00 0.000000e+00 0
0.000000e+00 0.000000e+00 0
-3.536943e-17 0.000000e+00 0
0.000000e+00 0.000000e+00 0
0.000000e+00 0.000000e+00 0
0.000000e+00 0.000000e+00 0
1.595124e-17 0.000000e+00 0
0.000000e+00 0.000000e+00 0
0.000000e+00 0.000000e+00 0
0.000000e+00 0.000000e+00 0
3.053325e-17 0.000000e+00 0
0.000000e+00 0.000000e+00 0
0.000000e+00 0.000000e+00 0
0.000000e+00 0.000000e+00 0
0.000000e+00 0.000000e+00 0
0.000000e+00 0.000000e+00 0
0.000000e+00 0.000000e+00 0
9.598376e-18 0.000000e+00 0
0.000000e+00 0.000000e+00 0
0.000000e+00 0.000000e+00 0
0.000000e+00 0.000000e+00 0
0.000000e+00 0.000000e+00 0
0.000000e+00 0.000000e+00 0
0.000000e+00 0.000000e+00 0
0.000000e+00 0.000000e+00 0
8.562222e-18 0.000000e+00 0
0.000000e+00 0.000000e+00 0
0.000000e+00 0.000000e+00 0
0.000000e+00 0.000000e+00 0
0.000000e+00 0.000000e+00 0
0.000000e+00 0.000000e+00 0
0.000000e+00 0.000000e+00 0
0.000000e+00 0.000000e+00 0
-1.374467e-17 0.000000e+00 0
0.000000e+00 0.000000e+00 0
0.000000e+00 0.000000e+00 0
0.000000e+00 0.000000e+00 0
0.000000e+00 0.000000e+00 0
0.000000e+00 0.000000e+00 0
0.000000e+00 0.000000e+00 0
0.000000e+00 0.000000e+00 0
-1.231265e-17 0.000000e+00 0
0.000000e+00 0.000000e+00 0
0.000000e+00 0.000000e+00 0
0.000000e+00 0.000000e+00 0
0.000000e+00 0.000000e+00 0
0.000000e+00 0.000000e+00 0
0.000000e+00 0.000000e+00 0
0.000000e+00 0.000000e+00 0
0.000000e+00 0.000000e+00 0
0.000000e+00 0.000000e+00 0
0.000000e+00 0.000000e+00 0
0.000000e+00 0.000000e+00 0
0.000000e+00 0.000000e+00 0
0.000000e+00 0.000000e+00 0
0.000000e+00 0.000000e+00 0
0.000000e+00 0.000000e+00 0
0.000000e+00 0.000000e+00 0
0.000000e+00 0.000000e+00 0
0.000000e+00 0.000000e+00 0
0.000000e+00 0.000000e+00 0
0.000000e+00 0.000000e+00 0
0.000000e+00 0.000000e+00 0
0.000000e+00 0.000000e+00 0
0.000000e+00 0.000000e+00 0
0.000000e+00 0.000000e+00 0
0.000000e+00 0.000000e+00 0
0.000000e+00 0.000000e+00 0
0.000000e+00 0.000000e+00 0
0.000000e+00 0.000000e+00 0
0.000000e+00 0.000000e+00 0
0.000000e+00 0.000000e+00 0
0.000000e+00 0.000000e+00 0
0.000000e+00 0.000000e+00 0
0.000000e+00 0.000000e+00 0
0.000000e+00 0.000000e+00 0
0.000000e+00 0.000000e+00 0
0.000000e+00 0.000000e+00 0
0.000000e+00 0.000000e+00 0
0.000000e+00 0.000000e+00 0
0.000000e+00 0.000000e+00 0
0.000000e+00 0.000000e+00 0
0.000000e+00 0.000000e+00 0
0.000000e+00 0.000000e+00 0
0.000000e+00 0.000000e+00 0
0.000000e+00 0.000000e+00 0
0.000000e+00 0.000000e+00 0
0.000000e+00 0.000000e+00 0
0.000000e+00 0.000000e+00 0
0.000000e+00 0.000000e+00 0
0.000000e+00 0.000000e+00 0
0.000000e+00 0.000000e+00 0
0.000000e+00 0.000000e+00 0
0.000000e+00 0.000000e+00 0
0.000000e+00 0.000000e+00 0
0.000000e+00 0.000000e+00 0
0.000000e+00 0.000000e+00 0
0.000000e+00 0.000000e+00 0
0.000000e+00 0.000000e+00 0
0.000000e+00 0.000000e+00 0
0.000000e+00 0.000000e+00 0
0.000000e+00 0.000000e+00 0
0.000000e+00 0.000000e+00 0
0.000000e+00 0.000000e+00 0
0.000000e+00 0.000000e+00 0
0.000000e+00 0.000000e+00 0
0.000000e+00 0.000000e+00 0
0.000000e+00 0.000000e+00 0
0.000000e+00 0.000000e+00 0
0.000000e+00 0.000000e+00 0
0.000000e+00 0.000000e+00 0
0.000000e+00 0.000000e+00 0
0.000000e+00 0.000000e+00 0
0.000000e+00 0.000000e+00 0
0.000000e+00 0.000000e+00 0
0.000000e+00 0.000000e+00 0
0.000000e+00 0.000000e+00 0
0.000000e+00 0.000000e+00 0
0.000000e+00 0.000000e+00 0
0.000000e+00 0.000000e+00 0
0.000000e+00 0.000000e+00 0
0.000000e+00 0.000000e+00 0
0.000000e+00 0.000000e+00 0
0.000000e+00 0.000000e+00 0
0.000000e+00 0.000000e+00 0
0.000000e+00 0.000000e+00 0
0.000000e+00 0.000000e+00 0
0.000000e+00 0.000000e+00 0
0.000000e+00 0.000000e+00 0
0.000000e+00 0.000000e+00 0
0.000000e+00 0.000000e+00 0
0.000000e+00 0.000000e+00 0
0.000000e+00 0.000000e+00 0
0.000000e+00 0.000000e+00 0
0.000000e+00 0.000000e+00 0
0.000000e+00 0.000000e+00 0
0.000000e+00 0.000000e+00 0
0.000000e+00 0.000000e+00 0
1.812956e+00 -3.826362e-05 0
1.812956e+00 -4.050294e-05 0
1.812990e+00 -3.483173e-05 0
1.813008e+00 -1.292333e-05 0
1.813003e+00 1.938323e-05 0
1.812963e+00 6.167034e-05 0
1.812878e+00 1.161486e-04 0
1.812733e+00 1.844787e-04 0
1.812517e+00 2.683613e-04 0
1.812213e+00 3.696908e-04 0
1.811803e+00 4.906004e-04 0
1.811268e+00 6.335102e-04 0
1.810586e+00 8.011685e-04 0
1.809732e+00 9.966502e-04 0
1.808677e+00 1.223415e-03 0
1.807390e+00 1.485409e-03 0
1.805835e+00 1.787140e-03 0
1.803973e+00 2.133831e-03 0
1.801758e+00 2.531631e-03 0
1.799137e+00 2.987848e-03 0
1.796052e+00 3.511206e-03 0
1.792434e+00 4.112155e-03 0
1.788204e+00 4.803122e-03 0
1.783268e+00 5.598666e-03 0
1.777520e+00 6.515134e-03 0
1.770834e+00 7.569193e-03 0
1.763070e+00 8.774090e-03 0
1.754072e+00 1.013128e-02 0
1.743690e+00 1.161388e-02 0
1.731810e+00 1.313783e-02 0
1.718431e+00 1.452169e-02 0
1.703786e+00 1.545590e-02 0
1.688515e+00 1.554796e-02 0
1.673731e+00 1.454360e-02 0
1.660669e+00 1.261365e-02 0
1.649962e+00 1.024938e-02 0
1.641654e+00 7.901944e-03 0
1.635463e+00 5.832898e-03 0
1.631001e+00 4.135335e-03 0
1.627890e+00 2.801872e-03 0
1.625806e+00 1.779602e-03 0
1.624494e+00 9.993415e-04 0
1.623764e+00 3.612834e-04 0
1.623473e+00 -2.138548e-04 0
1.623522e+00 -6.974286e-04 0
1.623830e+00 -1.051221e-03 0
1.624319e+00 -1.289678e-03 0
1.624921e+00 -1.429228e-03 0
1.625582e+00 -1.486478e-03 0
1.626255e+00 -1.476926e-03 0
1.626904e+00 -1.414354e-03 0
1.627499e+00 -1.310665e-03 0
1.628018e+00 -1.175933e-03 0
1.628446e+00 -1.018545e-03 0
1.628770e+00 -8.452816e-04 0
1.628983e+00 -6.611283e-04 0
1.629081e+00 -4.688466e-04 0
1.629073e+00 -2.773560e-04 0
1.628972e+00 -1.078543e-04 0
1.628784e+00 1.820241e-05 0
1.628518e+00 1.090509e-04 0
1.628181e+00 1.860893e-04 0
1.627777e+00 2.556603e-04 0
1.627312e+00 3.199962e-04 0
1.626790e+00 3.800459e-04 0
1.626213e+00 4.363132e-04 0
1.625586e+00 4.891381e-04 0
1.624911e+00 5.387861e-04 0
1.624191e+00 5.854646e-04 0
1.623428e+00 6.293270e-04 0
1.622626e+00 6.704906e-04 0
1.621786e+00 7.090649e-04 0
1.620911e+00 7.451739e-04 0
1.620002e+00 7.789548e-04 0
1.619063e+00 8.105402e-04 0
1.618095e+00 8.400404e-04 0
1.617100e+00 8.675418e-04 0
1.616079e+00 8.931222e-04 0
1.615035e+00 9.168686e-04 0
1.613969e+00 9.388815e-04 0
1.612882e+00 9.592656e-04 0
1.611777e+00 9.781142e-04 0
1.610653e+00 9.955022e-04 0
1.609514e+00 1.011492e-03 0
1.608359e+00 1.026146e-03 0
1.607191e+00 1.039533e-03 0
1.606010e+00 1.051726e-03 0
1.604817e+00 1.062797e-03 0
1.603613e+00 1.072811e-03 0
1.602400e+00 1.081819e-03 0
1.601178e+00 1.089868e-03 0
1.599948e+00 1.097006e-03 0
1.598710e+00 1.103279e-03 0
1.597467e+00 1.108736e-03 0
1.596218e+00 1.113423e-03 0
1.594963e+00 1.117381e-03 0
1.593705e+00 1.120649e-03 0
1.592443e+00 1.123262e-03 0
1.591177e+00 1.125253e-03 0
1.589909e+00 1.126658e-03 0
1.588640e+00 1.127508e-03 0
1.587368e+00 1.127834e-03 0
1.586096e+00 1.127663e-03 0
1.584823e+00 1.127018e-03 0
1.583550e+00 1.125918e-03 0
1.582277e+00 1.124386e-03 0
1.581005e+00 1.122445e-03 0
1.579734e+00 1.120120e-03 0
1.578464e+00 1.117435e-03 0
1.577196e+00 1.114406e-03 0
1.575931e+00 1.111048e-03 0
1.574667e+00 1.107371e-03 0
1.573406e+00 1.103385e-03 0
1.572148e+00 1.099103e-03 0
1.570893e+00 1.094540e-03 0
1.569642e+00 1.089711e-03 0
1.568394e+00 1.084630e-03 0
1.567150e+00 1.079308e-03 0
1.565911e+00 1.073751e-03 0
1.564676e+00 1.067964e-03 0
1.563445e+00 1.061951e-03 0
1.562219e+00 1.055715e-03 0
1.560998e+00 1.049264e-03 0
1.559783e+00 1.042606e-03 0
1.558573e+00 1.035747e-03 0
1.557369e+00 1.028694e-03 0
1.556170e+00 1.021449e-03 0
1.554978e+00 1.014013e-03 0
1.553791e+00 1.006387e-03 0
1.552611e+00 9.985703e-04 0
1.551438e+00 9.905647e-04 0
1.550271e+00 9.823714e-04 0
1.549112e+00 9.739916e-04 0
1.547959e+00 9.654255e-04 0
1.546814e+00 9.566728e-04 0
1.545676e+00 9.477322e-04 0
1.544546e+00 9.386018e-04 0
1.543424e+00 9.292791e-04 0
1.542310e+00 9.197607e-04 0
1.541204e+00 9.100425e-04 0
1.540107e+00 9.001190e-04 0
1.539018e+00 8.899829e-04 0
1.537939e+00 8.796237e-04 0
1.536868e+00 8.690271e-04 0
1.535807e+00 8.581729e-04 0
1.534755e+00 8.470312e-04 0
1.533714e+00 8.355590e-04 0
1.532682e+00 8.236934e-04 0
1.531662e+00 8.113403e-04 0
1.530652e+00 7.983583e-04 0
1.529655e+00 7.845289e-04 0
1.528670e+00 7.695057e-04 0
1.527700e+00 7.527092e-04 0
1.526745e+00 7.330979e-04 0
1.525810e+00 7.084127e-04 0
1.524899e+00 6.744210e-04 0
1.524021e+00 5.914237e-04 0
1.523189e+00 6.737220e-04 0
1.523189e+00 8.190334e-04 0
2.854465e+00 -7.587365e-05 0
2.854465e+00 -7.279379e-05 0
2.854493e+00 -5.474599e-05 0
2.854510e+00 -1.434354e-05 0
2.854506e+00 4.751589e-05 0
2.854473e+00 1.322392e-04 0
2.854398e+00 2.419863e-04 0
2.854272e+00 3.795628e-04 0
2.854082e+00 5.482722e-04 0
2.853814e+00 7.519142e-04 0
2.853452e+00 9.948206e-04 0
2.852979e+00 1.281903e-03 0
2.852374e+00 1.618666e-03 0
2.851617e+00 2.011278e-03 0
2.850680e+00 2.466709e-03 0
2.849537e+00 2.992857e-03 0
2.848156e+00 3.598756e-03 0
2.846500e+00 4.294905e-03 0
2.844530e+00 5.093656e-03 0
2.842200e+00 6.009665e-03 0
2.839456e+00 7.060472e-03 0
2.836240e+00 8.267143e-03 0
2.832479e+00 9.654917e-03 0
2.828092e+00 1.125359e-02 0
2.822982e+00 1.309708e-02 0
2.817034e+00 1.522105e-02 0
2.810111e+00 1.765633e-02 0
2.802053e+00 2.041322e-02 0
2.792675e+00 2.344885e-02 0
2.781785e+00 2.660634e-02 0
2.769238e+00 2.951905e-02 0
2.755077e+00 3.151224e-02 0
2.739859e+00 3.165833e-02 0
2.725084e+00 2.933031e-02 0
2.712702e+00 2.503646e-02 0
2.703218e+00 2.002959e-02 0
2.696288e+00 1.527228e-02 0
2.691347e+00 1.122040e-02 0
2.687879e+00 7.977349e-03 0
2.685485e+00 5.473165e-03 0
2.683867e+00 3.577026e-03 0
2.682811e+00 2.150582e-03 0
2.682156e+00 1.075904e-03 0
2.681745e+00 2.543803e-04 0
2.681455e+00 -3.768309e-04 0
2.681241e+00 -8.389378e-04 0
2.681073e+00 -1.149268e-03 0
2.680931e+00 -1.330324e-03 0
2.680795e+00 -1.404363e-03 0
2.680655e+00 -1.391629e-03 0
2.680498e+00 -1.309864e-03 0
2.680319e+00 -1.174310e-03 0
2.680109e+00 -9.979273e-04 0
2.679866e+00 -7.917556e-04 0
2.679585e+00 -5.653018e-04 0
2.679268e+00 -3.272486e-04 0
2.678921e+00 -9.510912e-05 0
2.678549e+00 1.152206e-04 0
2.678151e+00 3.042528e-04 0
2.677716e+00 4.772251e-04 0
2.677226e+00 6.356932e-04 0
2.676679e+00 7.806847e-04 0
2.676075e+00 9.148875e-04 0
2.675419e+00 1.040145e-03 0
2.674712e+00 1.157599e-03 0
2.673958e+00 1.268007e-03 0
2.673158e+00 1.371923e-03 0
2.672317e+00 1.469781e-03 0
2.671435e+00 1.561923e-03 0
2.670515e+00 1.648626e-03 0
2.669559e+00 1.730136e-03 0
2.668570e+00 1.806692e-03 0
2.667549e+00 1.878538e-03 0
2.666498e+00 1.945920e-03 0
2.665420e+00 2.009058e-03 0
2.664315e+00 2.068149e-03 0
2.663185e+00 2.123371e-03 0
2.662031e+00 2.174898e-03 0
2.660857e+00 2.222917e-03 0
2.659661e+00 2.267615e-03 0
2.658447e+00 2.309172e-03 0
2.657215e+00 2.347748e-03 0
2.655966e+00 2.383484e-03 0
2.654702e+00 2.416515e-03 0
2.653424e+00 2.446976e-03 0
2.652132e+00 2.475005e-03 0
2.650828e+00 2.500737e-03 0
2.649512e+00 2.524297e-03 0
2.648186e+00 2.545796e-03 0
2.646850e+00 2.565338e-03 0
2.645505e+00 2.583019e-03 0
2.644152e+00 2.598936e-03 0
2.642791e+00 2.613183e-03 0
2.641423e+00 2.625849e-03 0
2.640049e+00 2.637018e-03 0
2.638670e+00 2.646767e-03 0
2.637285e+00 2.655169e-03 0
2.635896e+00 2.662295e-03 0
2.634503e+00 2.668211e-03 0
2.633106e+00 2.672983e-03 0
2.631707e+00 2.676670e-03 0
2.630304e+00 2.679328e-03 0
2.628900e+00 2.681007e-03 0
2.627494e+00 2.681753e-03 0
2.626086e+00 2.681610e-03 0
2.624677e+00 2.680622e-03 0
2.623268e+00 2.678835e-03 0
2.621858e+00 2.676291e-03 0
2.620448e+00 2.673027e-03 0
2.619039e+00 2.669076e-03 0
2.617630e+00 2.664464e-03 0
2.616221e+00 2.659215e-03 0
2.614814e+00 2.653355e-03 0
2.613408e+00 2.646911e-03 0
2.612004e+00 2.639909e-03 0
2.610601e+00 2.632376e-03 0
2.609200e+00 2.624331e-03 0
2.607802e+00 2.615792e-03 0
2.606406e+00 2.606771e-03 0
2.605013e+00 2.597281e-03 0
2.603623e+00 2.587331e-03 0
2.602235e+00 2.576935e-03 0
2.600851e+00 2.566104e-03 0
2.599471e+00 2.554851e-03 0
2.598094e+00 2.543186e-03 0
2.596721e+00 2.531116e-03 0
2.595352e+00 2.518644e-03 0
2.593986e+00 2.505774e-03 0
2.592626e+00 2.492508e-03 0
2.591270e+00 2.478848e-03 0
2.589918e+00 2.464796e-03 0
2.588572e+00 2.450354e-03 0
2.587230e+00 2.435523e-03 0
2.585894e+00 2.420301e-03 0
2.584563e+00 2.404686e-03 0
2.583238e+00 2.388675e-03 0
2.581918e+00 2.372265e-03 0
2.580605e+00 2.355449e-03 0
2.579297e+00 2.338221e-03 0
2.577996e+00 2.320573e-03 0
2.576701e+00 2.302493e-03 0
2.575414e+00 2.283966e-03 0
2.574133e+00 2.264971e-03 0
2.572859e+00 2.245478e-03 0
2.571593e+00 2.225447e-03 0
2.570334e+00 2.204817e-03 0
2.569083e+00 2.183504e-03 0
2.567840e+00 2.161382e-03 0
2.566606e+00 2.138266e-03 0
2.565381e+00 2.113878e-03 0
2.564165e+00 2.087794e-03 0
2.562960e+00 2.059350e-03 0
2.561766e+00 2.027473e-03 0
2.560584e+00 1.990342e-03 0
2.559416e+00 1.944763e-03 0
2.558264e+00 1.884820e-03 0
2.557128e+00 1.801277e-03 0
2.555975e+00 1.783046e-03 0
2.555975e+00 1.813828e-03 0
3.421630e+00 -1.156955e-04 0
3.421630e+00 -1.092170e-04 0
3.421665e+00 -8.216639e-05 0
3.421691e+00 -2.664788e-05 0
3.421703e+00 5.852330e-05 0
3.421693e+00 1.755095e-04 0
3.421654e+00 3.272857e-04 0
3.421579e+00 5.176782e-04 0
3.421457e+00 7.512759e-04 0
3.421280e+00 1.033413e-03 0
3.421034e+00 1.370184e-03 0
3.420708e+00 1.768450e-03 0
3.420286e+00 2.235880e-03 0
3.419751e+00 2.781066e-03 0
3.419085e+00 3.413653e-03 0
3.418267e+00 4.144518e-03 0
3.417273e+00 4.986093e-03 0
3.416078e+00 5.952801e-03 0
3.414652e+00 7.061541e-03 0
3.412963e+00 8.332375e-03 0
3.410972e+00 9.789402e-03 0
3.408638e+00 1.146178e-02 0
3.405911e+00 1.338492e-02 0
3.402731e+00 1.560160e-02 0
3.399030e+00 1.816269e-02 0
3.394718e+00 2.112658e-02 0
3.389680e+00 2.455475e-02 0
3.383757e+00 2.849818e-02 0
3.376722e+00 3.296239e-02 0
3.368233e+00 3.782433e-02 0
3.357804e+00 4.265402e-02 0
3.344873e+00 4.640225e-02 0
3.329369e+00 4.714114e-02 0
3.313644e+00 4.314818e-02 0
3.302314e+00 3.564498e-02 0
3.295145e+00 2.753889e-02 0
3.290777e+00 2.040686e-02 0
3.288108e+00 1.469036e-02 0
3.286454e+00 1.031034e-02 0
3.285421e+00 7.028198e-03 0
3.284780e+00 4.595492e-03 0
3.284393e+00 2.801652e-03 0
3.284164e+00 1.483661e-03 0
3.284028e+00 5.244856e-04 0
3.283923e+00 -1.658563e-04 0
3.283815e+00 -6.494812e-04 0
3.283689e+00 -9.625907e-04 0
3.283540e+00 -1.135896e-03 0
3.283365e+00 -1.195662e-03 0
3.283164e+00 -1.164285e-03 0
3.282938e+00 -1.060776e-03 0
3.282687e+00 -9.012044e-04 0
3.282412e+00 -6.991175e-04 0
3.282112e+00 -4.661931e-04 0
3.281792e+00 -2.148572e-04 0
3.281453e+00 3.880125e-05 0
3.281096e+00 2.881139e-04 0
3.280713e+00 5.332953e-04 0
3.280293e+00 7.692025e-04 0
3.279833e+00 9.923868e-04 0
3.279332e+00 1.202054e-03 0
3.278789e+00 1.398470e-03 0
3.278205e+00 1.582736e-03 0
3.277580e+00 1.755966e-03 0
3.276917e+00 1.919081e-03 0
3.276217e+00 2.072822e-03 0
3.275482e+00 2.217795e-03 0
3.274714e+00 2.354501e-03 0
3.273915e+00 2.483360e-03 0
3.273086e+00 2.604733e-03 0
3.272229e+00 2.718961e-03 0
3.271346e+00 2.826383e-03 0
3.270437e+00 2.927333e-03 0
3.269505e+00 3.022130e-03 0
3.268551e+00 3.111066e-03 0
3.267577e+00 3.194404e-03 0
3.266582e+00 3.272400e-03 0
3.265569e+00 3.345310e-03 0
3.264539e+00 3.413395e-03 0
3.263493e+00 3.476908e-03 0
3.262431e+00 3.536084e-03 0
3.261356e+00 3.591134e-03 0
3.260267e+00 3.642257e-03 0
3.259165e+00 3.689645e-03 0
3.258052e+00 3.733493e-03 0
3.256928e+00 3.773990e-03 0
3.255793e+00 3.811317e-03 0
3.254650e+00 3.845639e-03 0
3.253497e+00 3.877108e-03 0
3.252337e+00 3.905866e-03 0
3.251169e+00 3.932054e-03 0
3.249994e+00 3.955805e-03 0
3.248813e+00 3.977250e-03 0
3.247626e+00 3.996509e-03 0
3.246433e+00 4.013694e-03 0
3.245236e+00 4.028912e-03 0
3.244034e+00 4.042264e-03 0
3.242827e+00 4.053847e-03 0
3.241618e+00 4.063755e-03 0
3.240405e+00 4.072075e-03 0
3.239189e+00 4.078890e-03 0
3.237970e+00 4.084272e-03 0
3.236749e+00 4.088292e-03 0
3.235526e+00 4.091014e-03 0
3.234302e+00 4.092501e-03 0
3.233076e+00 4.092817e-03 0
3.231848e+00 4.092021e-03 0
3.230620e+00 4.090170e-03 0
3.229392e+00 4.087311e-03 0
3.228163e+00 4.083487e-03 0
3.226933e+00 4.078735e-03 0
3.225704e+00 4.073093e-03 0
3.224475e+00 4.066598e-03 0
3.223246e+00 4.059287e-03 0
3.222018e+00 4.051197e-03 0
3.220791e+00 4.042358e-03 0
3.219565e+00 4.032798e-03 0
3.218340e+00 4.022537e-03 0
3.217116e+00 4.011594e-03 0
3.215894e+00 3.999987e-03 0
3.214673e+00 3.987731e-03 0
3.213455e+00 3.974846e-03 0
3.212238e+00 3.961350e-03 0
3.211023e+00 3.947256e-03 0
3.209810e+00 3.932575e-03 0
3.208600e+00 3.917315e-03 0
3.207392e+00 3.901480e-03 0
3.206187e+00 3.885075e-03 0
3.204985e+00 3.868104e-03 0
3.203786e+00 3.850571e-03 0
3.202590e+00 3.832479e-03 0
3.201397e+00 3.813828e-03 0
3.200207e+00 3.794618e-03 0
3.199021e+00 3.774847e-03 0
3.197839e+00 3.754510e-03 0
3.196660e+00 3.733605e-03 0
3.195486e+00 3.712125e-03 0
3.194315e+00 3.690062e-03 0
3.193149e+00 3.667408e-03 0
3.191987e+00 3.644150e-03 0
3.190829e+00 3.620273e-03 0
3.189677e+00 3.595757e-03 0
3.188529e+00 3.570574e-03 0
3.187386e+00 3.544687e-03 0
3.186248e+00 3.518041e-03 0
3.185116e+00 3.490560e-03 0
3.183990e+00 3.462137e-03 0
3.182869e+00 3.432614e-03 0
3.181754e+00 3.401761e-03 0
3.180645e+00 3.369240e-03 0
3.179542e+00 3.334548e-03 0
3.178447e+00 3.296931e-03 0
3.177358e+00 3.255245e-03 0
3.176276e+00 3.207770e-03 0
3.175200e+00 3.151996e-03 0
3.174129e+00 3.084744e-03 0
3.173059e+00 3.002958e-03 0
3.171977e+00 2.925402e-03 0
3.171977e+00 2.892710e-03 0
3.734271e+00 -1.606743e-04 0
3.734271e+00 -1.522977e-04 0
3.734314e+00 -1.196213e-04 0
3.734352e+00 -5.421058e-05 0
3.734381e+00 4.591288e-05 0
3.734397e+00 1.835041e-04 0
3.734396e+00 3.623297e-04 0
3.734372e+00 5.870595e-04 0
3.734320e+00 8.632868e-04 0
3.734232e+00 1.197514e-03 0
3.734101e+00 1.597128e-03 0
3.733917e+00 2.070406e-03 0
3.733670e+00 2.626575e-03 0
3.733348e+00 3.275892e-03 0
3.732938e+00 4.029756e-03 0
3.732426e+00 4.900952e-03 0
3.731796e+00 5.904013e-03 0
3.731031e+00 7.055643e-03 0
3.730112e+00 8.375331e-03 0
3.729018e+00 9.886197e-03 0
3.727727e+00 1.161607e-02 0
3.726213e+00 1.359890e-02 0
3.724449e+00 1.587654e-02 0
3.722400e+00 1.850109e-02 0
3.720026e+00 2.153801e-02 0
3.717272e+00 2.506997e-02 0
3.714058e+00 2.920144e-02 0
3.710253e+00 3.406222e-02 0
3.705621e+00 3.980081e-02 0
3.699704e+00 4.653303e-02 0
3.691578e+00 5.412482e-02 0
3.679456e+00 6.146398e-02 0
3.660578e+00 6.455293e-02 0
3.638419e+00 5.782784e-02 0
3.627895e+00 4.452217e-02 0
3.624073e+00 3.218233e-02 0
3.623109e+00 2.268465e-02 0
3.623195e+00 1.577339e-02 0
3.623601e+00 1.080794e-02 0
3.624056e+00 7.236976e-03 0
3.624469e+00 4.660227e-03 0
3.624815e+00 2.798774e-03 0
3.625088e+00 1.459620e-03 0
3.625284e+00 5.084444e-04 0
3.625411e+00 -1.522194e-04 0
3.625465e+00 -5.921537e-04 0
3.625451e+00 -8.591392e-04 0
3.625377e+00 -9.887281e-04 0
3.625249e+00 -1.008857e-03 0
3.625077e+00 -9.421809e-04 0
3.624865e+00 -8.073981e-04 0
3.624621e+00 -6.200468e-04 0
3.624349e+00 -3.926799e-04 0
3.624053e+00 -1.385815e-04 0
3.623737e+00 1.293544e-04 0
3.623399e+00 4.053788e-04 0
3.623035e+00 6.850099e-04 0
3.622645e+00 9.617374e-04 0
3.622227e+00 1.230804e-03 0
3.621780e+00 1.489053e-03 0
3.621304e+00 1.734935e-03 0
3.620798e+00 1.967969e-03 0
3.620261e+00 2.188376e-03 0
3.619695e+00 2.396679e-03 0
3.619100e+00 2.593489e-03 0
3.618478e+00 2.779408e-03 0
3.617829e+00 2.954996e-03 0
3.617156e+00 3.120750e-03 0
3.616459e+00 3.277114e-03 0
3.615739e+00 3.424501e-03 0
3.614999e+00 3.563316e-03 0
3.614238e+00 3.693965e-03 0