<?xml version="1.0"?>
<VTKFile type="StructuredGrid">
<StructuredGrid WholeExtent="0 158 0 30 0 0 ">
<Piece Extent="0 158 0 30 0 0 ">
<Points>
<DataArray type="Float64" format="ascii" NumberOfComponents="3">
0.000000e+00 0.000000e+00 0.000000e+00
3.164557e-02 0.000000e+00 0.000000e+00
6.329114e-02 0.000000e+00 0.000000e+00
9.493671e-02 0.000000e+00 0.000000e+00
1.265823e-01 0.000000e+00 0.000000e+00
1.582278e-01 0.000000e+00 0.000000e+00
1.898734e-01 0.000000e+00 0.000000e+00
2.215190e-01 0.000000e+00 0.000000e+00
2.531646e-01 0.000000e+00 0.000000e+00
2.848101e-01 0.000000e+00 0.000000e+00
3.164557e-01 0.000000e+00 0.000000e+00
3.481013e-01 0.000000e+00 0.000000e+00
3.797468e-01 0.000000e+00 0.000000e+00
4.113924e-01 0.000000e+00 0.000000e+00
4.430380e-01 0.000000e+00 0.000000e+00
4.746835e-01 0.000000e+00 0.000000e+00
5.063291e-01 0.000000e+00 0.000000e+00
5.379747e-01 0.000000e+00 0.000000e+00
5.696203e-01 0.000000e+00 0.000000e+00
6.012658e-01 0.000000e+00 0.000000e+00
6.329114e-01 0.000000e+00 0.000000e+00
6.645570e-01 0.000000e+00 0.000000e+00
6.962025e-01 0.000000e+00 0.000000e+00
7.278481e-01 0.000000e+00 0.000000e+00
7.594937e-01 0.000000e+00 0.000000e+00
7.911392e-01 0.000000e+00 0.000000e+00
8.227848e-01 0.000000e+00 0.000000e+00
8.544304e-01 0.000000e+00 0.000000e+00
8.860759e-01 0.000000e+00 0.000000e+00
9.177215e-01 0.000000e+00 0.000000e+00
9.493671e-01 0.000000e+00 0.000000e+00
9.810127e-01 0.000000e+00 0.000000e+00
1.012658e+00 0.000000e+00 0.000000e+00
1.044304e+00 0.000000e+00 0.000000e+00
1.075949e+00 0.000000e+00 0.000000e+00
1.107595e+00 0.000000e+00 0.000000e+00
1.139241e+00 0.000000e+00 0.000000e+00
1.170886e+00 0.000000e+00 0.000000e+00
1.202532e+00 0.000000e+00 0.000000e+00
1.234177e+00 0.000000e+00 0.000000e+00
1.265823e+00 0.000000e+00 0.000000e+00
1.297468e+00 0.000000e+00 0.000000e+00
1.329114e+00 0.000000e+00 0.000000e+00
1.360759e+00 0.000000e+00 0.000000e+00
1.392405e+00 0.000000e+00 0.000000e+00
1.424051e+00 0.000000e+00 0.000000e+00
1.455696e+00 0.000000e+00 0.000000e+00
1.487342e+00 0.000000e+00 0.000000e+00
1.518987e+00 0.000000e+00 0.000000e+00
1.550633e+00 0.000000e+00 0.000000e+00
1.582278e+00 0.000000e+00 0.000000e+00
1.613924e+00 0.000000e+00 0.000000e+00
1.645570e+00 0.000000e+00 0.000000e+00
1.677215e+00 0.000000e+00 0.000000e+00
1.708861e+00 0.000000e+00 0.000000e+00
1.740506e+00 0.000000e+00 0.000000e+00
1.772152e+00 0.000000e+00 0.000000e+00
1.803797e+00 0.000000e+00 0.000000e+00
1.835443e+00 0.000000e+00 0.000000e+00
1.867089e+00 0.000000e+00 0.000000e+00
1.898734e+00 0.000000e+00 0.000000e+00
1.930380e+00 0.000000e+00 0.000000e+00
1.962025e+00 0.000000e+00 0.000000e+00
1.993671e+00 0.000000e+00 0.000000e+00
2.025316e+00 0.000000e+00 0.000000e+00
2.056962e+00 0.000000e+00 0.000000e+00
2.088608e+00 0.000000e+00 0.000000e+00
2.120253e+00 0.000000e+00 0.000000e+00
2.151899e+00 0.000000e+00 0.000000e+00
2.183544e+00 0.000000e+00 0.000000e+00
2.215190e+00 0.000000e+00 0.000000e+00
2.246835e+00 0.000000e+00 0.000000e+00
2.278481e+00 0.000000e+00 0.000000e+00
2.310127e+00 0.000000e+00 0.000000e+00
2.341772e+00 0.000000e+00 0.000000e+00
2.373418e+00 0.000000e+00 0.000000e+00
2.405063e+00 0.000000e+00 0.000000e+00
2.436709e+00 0.000000e+00 0.000000e+00
2.468354e+00 0.000000e+00 0.000000e+00
2.500000e+00 0.000000e+00 0.000000e+00
2.531646e+00 0.000000e+00 0.000000e+00
2.563291e+00 0.000000e+00 0.000000e+00
2.594937e+00 0.000000e+00 0.000000e+00
2.626582e+00 0.000000e+00 0.000000e+00
2.658228e+00 0.000000e+00 0.000000e+00
2.689873e+00 0.000000e+00 0.000000e+00
2.721519e+00 0.000000e+00 0.000000e+00
2.753165e+00 0.000000e+00 0.000000e+00
2.784810e+00 0.000000e+00 0.000000e+00
2.816456e+00 0.000000e+00 0.000000e+00
2.848101e+00 0.000000e+00 0.000000e+00
2.879747e+00 0.000000e+00 0.000000e+00
2.911392e+00 0.000000e+00 0.000000e+00
2.943038e+00 0.000000e+00 0.000000e+00
2.974684e+00 0.000000e+00 0.000000e+00
3.006329e+00 0.000000e+00 0.000000e+00
3.037975e+00 0.000000e+00 0.000000e+00
3.069620e+00 0.000000e+00 0.000000e+00
3.101266e+00 0.000000e+00 0.000000e+00
3.132911e+00 0.000000e+00 0.000000e+00
3.164557e+00 0.000000e+00 0.000000e+00
3.196203e+00 0.000000e+00 0.000000e+00
3.227848e+00 0.000000e+00 0.000000e+00
3.259494e+00 0.000000e+00 0.000000e+00
3.291139e+00 0.000000e+00 0.000000e+00
3.322785e+00 0.000000e+00 0.000000e+00
3.354430e+00 0.000000e+00 0.000000e+00
3.386076e+00 0.000000e+00 0.000000e+00
3.417722e+00 0.000000e+00 0.000000e+00
3.449367e+00 0.000000e+00 0.000000e+00
3.481013e+00 0.000000e+00 0.000000e+00
3.512658e+00 0.000000e+00 0.000000e+00
3.544304e+00 0.000000e+00 0.000000e+00
3.575949e+00 0.000000e+00 0.000000e+00
3.607595e+00 0.000000e+00 0.000000e+00
3.639241e+00 0.000000e+00 0.000000e+00
3.670886e+00 0.000000e+00 0.000000e+00
3.702532e+00 0.000000e+00 0.000000e+00
3.734177e+00 0.000000e+00 0.000000e+00
3.765823e+00 0.000000e+00 0.000000e+00
3.797468e+00 0.000000e+00 0.000000e+00
3.829114e+00 0.000000e+00 0.000000e+00
3.860759e+00 0.000000e+00 0.000000e+00
3.892405e+00 0.000000e+00 0.000000e+00
3.924051e+00 0.000000e+00 0.000000e+00
3.955696e+00 0.000000e+00 0.000000e+00
3.987342e+00 0.000000e+00 0.000000e+00
4.018987e+00 0.000000e+00 0.000000e+00
4.050633e+00 0.000000e+00 0.000000e+00
4.082278e+00 0.000000e+00 0.000000e+00
4.113924e+00 0.000000e+00 0.000000e+00
4.145570e+00 0.000000e+00 0.000000e+00
4.177215e+00 0.000000e+00 0.000000e+00
4.208861e+00 0.000000e+00 0.000000e+00
4.240506e+00 0.000000e+00 0.000000e+00
4.272152e+00 0.000000e+00 0.000000e+00
4.303797e+00 0.000000e+00 0.000000e+00
4.335443e+00 0.000000e+00 0.000000e+00
4.367089e+00 0.000000e+00 0.000000e+00
4.398734e+00 0.000000e+00 0.000000e+00
4.430380e+00 0.000000e+00 0.000000e+00
4.462025e+00 0.000000e+00 0.000000e+00
4.493671e+00 0.000000e+00 0.000000e+00
4.525316e+00 0.000000e+00 0.000000e+00
4.556962e+00 0.000000e+00 0.000000e+00
4.588608e+00 0.000000e+00 0.000000e+00
4.620253e+00 0.000000e+00 0.000000e+00
4.651899e+00 0.000000e+00 0.000000e+00
4.683544e+00 0.000000e+00 0.000000e+00
4.715190e+00 0.000000e+00 0.000000e+00
4.746835e+00 0.000000e+00 0.000000e+00
4.778481e+00 0.000000e+00 0.000000e+00
4.810127e+00 0.000000e+00 0.000000e+00
4.841772e+00 0.000000e+00 0.000000e+00
4.873418e+00 0.000000e+00 0.000000e+00
4.905063e+00 0.000000e+00 0.000000e+00
4.936709e+00 0.000000e+00 0.000000e+00
4.968354e+00 0.000000e+00 0.000000e+00
5.000000e+00 0.000000e+00 0.000000e+00
0.000000e+00 3.333333e-02 0.000000e+00
3.164557e-02 3.333333e-02 0.000000e+00
6.329114e-02 3.333333e-02 0.000000e+00
9.493671e-02 3.333333e-02 0.000000e+00
1.265823e-01 3.333333e-02 0.000000e+00
1.582278e-01 3.333333e-02 0.000000e+00
1.898734e-01 3.333333e-02 0.000000e+00
2.215190e-01 3.333333e-02 0.000000e+00
2.531646e-01 3.333333e-02 0.000000e+00
2.848101e-01 3.333333e-02 0.000000e+00
3.164557e-01 3.333333e-02 0.000000e+00
3.481013e-01 3.333333e-02 0.000000e+00
3.797468e-01 3.333333e-02 0.000000e+00
4.113924e-01 3.333333e-02 0.000000e+00
4.430380e-01 3.333333e-02 0.000000e+00
4.746835e-01 3.333333e-02 0.000000e+00
5.063291e-01 3.333333e-02 0.000000e+00
5.379747e-01 3.333333e-02 0.000000e+00
5.696203e-01 3.333333e-02 0.000000e+00
6.012658e-01 3.333333e-02 0.000000e+00
6.329114e-01 3.333333e-02 0.000000e+00
6.645570e-01 3.333333e-02 0.000000e+00
6.962025e-01 3.333333e-02 0.000000e+00
7.278481e-01 3.333333e-02 0.000000e+00
7.594937e-01 3.333333e-02 0.000000e+00
7.911392e-01 3.333333e-02 0.000000e+00
8.227848e-01 3.333333e-02 0.000000e+00
8.544304e-01 3.333333e-02 0.000000e+00
8.860759e-01 3.333333e-02 0.000000e+00
9.177215e-01 3.333333e-02 0.000000e+00
9.493671e-01 3.333333e-02 0.000000e+00
9.810127e-01 3.333333e-02 0.000000e+00
1.012658e+00 3.333333e-02 0.000000e+00
1.044304e+00 3.333333e-02 0.000000e+00
1.075949e+00 3.333333e-02 0.000000e+00
1.107595e+00 3.333333e-02 0.000000e+00
1.139241e+00 3.333333e-02 0.000000e+00
1.170886e+00 3.333333e-02 0.000000e+00
1.202532e+00 3.333333e-02 0.000000e+00
1.234177e+00 3.333333e-02 0.000000e+00
1.265823e+00 3.333333e-02 0.000000e+00
1.297468e+00 3.333333e-02 0.000000e+00
1.329114e+00 3.333333e-02 0.000000e+00
1.360759e+00 3.333333e-02 0.000000e+00
1.392405e+00 3.333333e-02 0.000000e+00
1.424051e+00 3.333333e-02 0.000000e+00
1.455696e+00 3.333333e-02 0.000000e+00
1.487342e+00 3.333333e-02 0.000000e+00
1.518987e+00 3.333333e-02 0.000000e+00
1.550633e+00 3.333333e-02 0.000000e+00
1.582278e+00 3.333333e-02 0.000000e+00
1.613924e+00 3.333333e-02 0.000000e+00
1.645570e+00 3.333333e-02 0.000000e+00
1.677215e+00 3.333333e-02 0.000000e+00
1.708861e+00 3.333333e-02 0.000000e+00
1.740506e+00 3.333333e-02 0.000000e+00
1.772152e+00 3.333333e-02 0.000000e+00
1.803797e+00 3.333333e-02 0.000000e+00
1.835443e+00 3.333333e-02 0.000000e+00
1.867089e+00 3.333333e-02 0.000000e+00
1.898734e+00 3.333333e-02 0.000000e+00
1.930380e+00 3.333333e-02 0.000000e+00
1.962025e+00 3.333333e-02 0.000000e+00
1.993671e+00 3.333333e-02 0.000000e+00
2.025316e+00 3.333333e-02 0.000000e+00
2.056962e+00 3.333333e-02 0.000000e+00
2.088608e+00 3.333333e-02 0.000000e+00
2.120253e+00 3.333333e-02 0.000000e+00
2.151899e+00 3.333333e-02 0.000000e+00
2.183544e+00 3.333333e-02 0.000000e+00
2.215190e+00 3.333333e-02 0.000000e+00
2.246835e+00 3.333333e-02 0.000000e+00
2.278481e+00 3.333333e-02 0.000000e+00
2.310127e+00 3.333333e-02 0.000000e+00
2.341772e+00 3.333333e-02 0.000000e+00
2.373418e+00 3.333333e-02 0.000000e+00
2.405063e+00 3.333333e-02 0.000000e+00
2.436709e+00 3.333333e-02 0.000000e+00
2.468354e+00 3.333333e-02 0.000000e+00
2.500000e+00 3.333333e-02 0.000000e+00
2.531646e+00 3.333333e-02 0.000000e+00
2.563291e+00 3.333333e-02 0.000000e+00
2.594937e+00 3.333333e-02 0.000000e+00
2.626582e+00 3.333333e-02 0.000000e+00
2.658228e+00 3.333333e-02 0.000000e+00
2.689873e+00 3.333333e-02 0.000000e+00
2.721519e+00 3.333333e-02 0.000000e+00
2.753165e+00 3.333333e-02 0.000000e+00
2.784810e+00 3.333333e-02 0.000000e+00
2.816456e+00 3.333333e-02 0.000000e+00
2.848101e+00 3.333333e-02 0.000000e+00
2.879747e+00 3.333333e-02 0.000000e+00
[...]
<PointData>
<DataArray Name="Velocity" type="Float64" format="ascii" NumberOfComponents="3">
0.000000e+00 0.000000e+00 0
0.000000e+00 0.000000e+00 0
0.000000e+00 0.000000e+00 0
0.000000e+00 0.000000e+00 0
0.000000e+00 0.000000e+00 0
0.000000e+00 0.000000e+00 0
0.000000e+00 0.000000e+00 0
0.000000e+00 0.000000e+00 0
0.000000e+00 0.000000e+00 0
0.000000e+00 0.000000e+00 0
0.000000e+00 0.000000e+00 0
0.000000e+00 0.000000e+00 0
0.000000e+00 0.000000e+00 0
0.000000e+00 0.000000e+00 0
0.000000e+00 0.000000e+00 0
0.000000e+00 0.000000e+00 0
0.000000e+00 0.000000e+00 0
0.000000e+00 0.000000e+00 0
0.000000e+00 0.000000e+00 0
-1.862353e-17 0.000000e+00 0
0.000000e+00 0.000000e+00 0
0.000000e+00 0.000000e+00 0
0.000000e+00 0.000000e+00 0
-5.182805e-17 0.000000e+00 0
0.000000e+00 0.000000e+00 0
0.000000e+00 0.000000e+00 0
0.000000e+00 0.000000e+00 0
-1.401225e-18 0.000000e+00 0
0.000000e+00 0.000000e+00 0
0.000000e+00 0.000000e+00 0
0.000000e+00 0.000000e+00 0
1.167094e-17 0.000000e+00 0
0.000000e+00 0.000000e+00 0
0.000000e+00 0.000000e+00 0
0.000000e+00 0.000000e+00 0
0.000000e+00 0.000000e+00 0
0.000000e+00 0.000000e+00 0
0.000000e+00 0.000000e+00 0
2.418199e-17 0.000000e+00 0
0.000000e+00 0.000000e+00 0
0.000000e+00 0.000000e+00 0
0.000000e+00 0.000000e+00 0
0.000000e+00 0.000000e+00 0
0.000000e+00 0.000000e+00 0
0.000000e+00 0.000000e+00 0
0.000000e+00 0.000000e+00 0
2.396591e-17 0.000000e+00 0
0.000000e+00 0.000000e+00 0
0.000000e+00 0.000000e+00 0
0.000000e+00 0.000000e+00 0
0.000000e+00 0.000000e+00 0
0.000000e+00 0.000000e+00 0
0.000000e+00 0.000000e+00 0
0.000000e+00 0.000000e+00 0
2.898532e-18 0.000000e+00 0
0.000000e+00 0.000000e+00 0
0.000000e+00 0.000000e+00 0
0.000000e+00 0.000000e+00 0
0.000000e+00 0.000000e+00 0
0.000000e+00 0.000000e+00 0
0.000000e+00 0.000000e+00 0
0.000000e+00 0.000000e+00 0
4.563653e-18 0.000000e+00 0
0.000000e+00 0.000000e+00 0
0.000000e+00 0.000000e+00 0
0.000000e+00 0.000000e+00 0
0.000000e+00 0.000000e+00 0
0.000000e+00 0.000000e+00 0
0.000000e+00 0.000000e+00 0
0.000000e+00 0.000000e+00 0
0.000000e+00 0.000000e+00 0
0.000000e+00 0.000000e+00 0
0.000000e+00 0.000000e+00 0
0.000000e+00 0.000000e+00 0
0.000000e+00 0.000000e+00 0
0.000000e+00 0.000000e+00 0
0.000000e+00 0.000000e+00 0
0.000000e+00 0.000000e+00 0
0.000000e+00 0.000000e+00 0
0.000000e+00 0.000000e+00 0
0.000000e+00 0.000000e+00 0
0.000000e+00 0.000000e+00 0
0.000000e+00 0.000000e+00 0
0.000000e+00 0.000000e+00 0
0.000000e+00 0.000000e+00 0
0.000000e+00 0.000000e+00 0
0.000000e+00 0.000000e+00 0
0.000000e+00 0.000000e+00 0
0.000000e+00 0.000000e+00 0
0.000000e+00 0.000000e+00 0
0.000000e+00 0.000000e+00 0
0.000000e+00 0.000000e+00 0
0.000000e+00 0.000000e+00 0
0.000000e+00 0.000000e+00 0
0.000000e+00 0.000000e+00 0
0.000000e+00 0.000000e+00 0
0.000000e+00 0.000000e+00 0
0.000000e+00 0.000000e+00 0
0.000000e+00 0.000000e+00 0
0.000000e+00 0.000000e+00 0
0.000000e+00 0.000000e+00 0
0.000000e+00 0.000000e+00 0
0.000000e+00 0.000000e+00 0
0.000000e+00 0.000000e+00 0
0.000000e+00 0.000000e+00 0
0.000000e+00 0.000000e+00 0
0.000000e+00 0.000000e+00 0
0.000000e+00 0.000000e+00 0
0.000000e+00 0.000000e+00 0
0.000000e+00 0.000000e+00 0
0.000000e+00 0.000000e+00 0
0.000000e+00 0.000000e+00 0
0.000000e+00 0.000000e+00 0
0.000000e+00 0.000000e+00 0
0.000000e+00 0.000000e+00 0
0.000000e+00 0.000000e+00 0
0.000000e+00 0.000000e+00 0
0.000000e+00 0.000000e+00 0
0.000000e+00 0.000000e+00 0
0.000000e+00 0.000000e+00 0
0.000000e+00 0.000000e+00 0
0.000000e+00 0.000000e+00 0
0.000000e+00 0.000000e+00 0
0.000000e+00 0.000000e+00 0
0.000000e+00 0.000000e+00 0
0.000000e+00 0.000000e+00 0
0.000000e+00 0.000000e+00 0
0.000000e+00 0.000000e+00 0
0.000000e+00 0.000000e+00 0
0.000000e+00 0.000000e+00 0
0.000000e+00 0.000000e+00 0
0.000000e+00 0.000000e+00 0
0.000000e+00 0.000000e+00 0
0.000000e+00 0.000000e+00 0
0.000000e+00 0.000000e+00 0
0.000000e+00 0.000000e+00 0
0.000000e+00 0.000000e+00 0
0.000000e+00 0.000000e+00 0
0.000000e+00 0.000000e+00 0
0.000000e+00 0.000000e+00 0
0.000000e+00 0.000000e+00 0
0.000000e+00 0.000000e+00 0
0.000000e+00 0.000000e+00 0
0.000000e+00 0.000000e+00 0
0.000000e+00 0.000000e+00 0
0.000000e+00 0.000000e+00 0
0.000000e+00 0.000000e+00 0
0.000000e+00 0.000000e+00 0
0.000000e+00 0.000000e+00 0
0.000000e+00 0.000000e+00 0
0.000000e+00 0.000000e+00 0
0.000000e+00 0.000000e+00 0
0.000000e+00 0.000000e+00 0
0.000000e+00 0.000000e+00 0
0.000000e+00 0.000000e+00 0
0.000000e+00 0.000000e+00 0
0.000000e+00 0.000000e+00 0
0.000000e+00 0.000000e+00 0
0.000000e+00 0.000000e+00 0
1.794485e+00 -4.011017e-05 0
1.794485e+00 -4.259970e-05 0
1.794520e+00 -3.715088e-05 0
1.794540e+00 -1.494249e-05 0
1.794536e+00 1.792939e-05 0
1.794497e+00 6.085464e-05 0
1.794412e+00 1.160902e-04 0
1.794268e+00 1.853178e-04 0
1.794051e+00 2.701834e-04 0
1.793744e+00 3.725891e-04 0
1.793331e+00 4.948157e-04 0
1.792792e+00 6.393603e-04 0
1.792103e+00 8.090683e-04 0
1.791240e+00 1.007136e-03 0
1.790174e+00 1.236971e-03 0
1.788873e+00 1.502510e-03 0
1.787301e+00 1.808340e-03 0
1.785416e+00 2.159777e-03 0
1.783174e+00 2.563185e-03 0
1.780520e+00 3.026045e-03 0
1.777396e+00 3.557248e-03 0
1.773730e+00 4.167444e-03 0
1.769443e+00 4.869266e-03 0
1.764439e+00 5.677544e-03 0
1.758610e+00 6.608892e-03 0
1.751827e+00 7.680251e-03 0
1.743948e+00 8.905156e-03 0
1.734815e+00 1.028511e-02 0
1.724275e+00 1.179268e-02 0
1.712212e+00 1.334231e-02 0
1.698623e+00 1.474938e-02 0
1.683747e+00 1.569891e-02 0
1.668235e+00 1.579181e-02 0
1.653219e+00 1.476978e-02 0
1.639954e+00 1.280671e-02 0
1.629083e+00 1.040218e-02 0
1.620652e+00 8.014921e-03 0
1.614374e+00 5.910889e-03 0
1.609855e+00 4.184677e-03 0
1.606708e+00 2.828654e-03 0
1.604606e+00 1.788744e-03 0
1.603289e+00 9.938802e-04 0
1.602565e+00 3.372727e-04 0
1.602287e+00 -2.544082e-04 0
1.602358e+00 -7.463587e-04 0
1.602691e+00 -1.105814e-03 0
1.603208e+00 -1.347235e-03 0
1.603840e+00 -1.487512e-03 0
1.604530e+00 -1.543732e-03 0
1.605231e+00 -1.531790e-03 0
1.605906e+00 -1.465793e-03 0
1.606526e+00 -1.357909e-03 0
1.607067e+00 -1.218464e-03 0
1.607514e+00 -1.056088e-03 0
1.607854e+00 -8.777891e-04 0
1.608080e+00 -6.886368e-04 0
1.608188e+00 -4.915794e-04 0
1.608187e+00 -2.947885e-04 0
1.608088e+00 -1.186995e-04 0
1.607902e+00 1.271600e-05 0
1.607635e+00 1.065656e-04 0
1.607294e+00 1.857616e-04 0
1.606885e+00 2.570864e-04 0
1.606414e+00 3.229532e-04 0
1.605884e+00 3.844093e-04 0
1.605299e+00 4.419990e-04 0
1.604661e+00 4.960547e-04 0
1.603975e+00 5.468152e-04 0
1.603242e+00 5.944804e-04 0
1.602467e+00 6.392315e-04 0
1.601650e+00 6.812319e-04 0
1.600795e+00 7.206235e-04 0
1.599905e+00 7.575276e-04 0
1.598980e+00 7.920532e-04 0
1.598024e+00 8.243083e-04 0
1.597039e+00 8.544038e-04 0
1.596025e+00 8.824505e-04 0
1.594986e+00 9.085529e-04 0
1.593923e+00 9.328054e-04 0
1.592837e+00 9.552961e-04 0
1.591731e+00 9.761125e-04 0
1.590605e+00 9.953442e-04 0
1.589461e+00 1.013080e-03 0
1.588300e+00 1.029399e-03 0
1.587124e+00 1.044374e-03 0
1.585934e+00 1.058066e-03 0
1.584731e+00 1.070536e-03 0
1.583515e+00 1.081849e-03 0
1.582289e+00 1.092072e-03 0
1.581053e+00 1.101270e-03 0
1.579808e+00 1.109500e-03 0
1.578555e+00 1.116810e-03 0
1.577294e+00 1.123244e-03 0
1.576027e+00 1.128843e-03 0
1.574754e+00 1.133651e-03 0
1.573476e+00 1.137713e-03 0
1.572193e+00 1.141072e-03 0
1.570907e+00 1.143768e-03 0
1.569617e+00 1.145837e-03 0
1.568325e+00 1.147312e-03 0
1.567031e+00 1.148220e-03 0
1.565735e+00 1.148587e-03 0
1.564438e+00 1.148439e-03 0
1.563141e+00 1.147802e-03 0
1.561843e+00 1.146706e-03 0
1.560545e+00 1.145179e-03 0
1.559249e+00 1.143245e-03 0
1.557953e+00 1.140925e-03 0
1.556658e+00 1.138232e-03 0
1.555365e+00 1.135178e-03 0
1.554075e+00 1.131778e-03 0
1.552786e+00 1.128050e-03 0
1.551500e+00 1.124013e-03 0
1.550217e+00 1.119685e-03 0
1.548938e+00 1.115077e-03 0
1.547661e+00 1.110200e-03 0
1.546389e+00 1.105060e-03 0
1.545120e+00 1.099665e-03 0
1.543856e+00 1.094024e-03 0
1.542596e+00 1.088147e-03 0
1.541341e+00 1.082042e-03 0
1.540091e+00 1.075716e-03 0
1.538845e+00 1.069175e-03 0
1.537605e+00 1.062422e-03 0
1.536371e+00 1.055462e-03 0
1.535142e+00 1.048298e-03 0
1.533919e+00 1.040933e-03 0
1.532702e+00 1.033370e-03 0
1.531492e+00 1.025610e-03 0
1.530288e+00 1.017655e-03 0
1.529090e+00 1.009506e-03 0
1.527900e+00 1.001163e-03 0
1.526716e+00 9.926292e-04 0
1.525540e+00 9.839039e-04 0
1.524371e+00 9.749873e-04 0
1.523210e+00 9.658791e-04 0
1.522057e+00 9.565784e-04 0
1.520912e+00 9.470834e-04 0
1.519774e+00 9.373918e-04 0
1.518646e+00 9.274992e-04 0
1.517526e+00 9.174002e-04 0
1.516414e+00 9.070874e-04 0
1.515312e+00 8.965496e-04 0
1.514219e+00 8.857710e-04 0
1.513136e+00 8.747293e-04 0
1.512062e+00 8.633927e-04 0
1.510998e+00 8.517169e-04 0
1.509945e+00 8.396367e-04 0
1.508903e+00 8.270559e-04 0
1.507872e+00 8.138295e-04 0
1.506853e+00 7.997340e-04 0
1.505848e+00 7.844152e-04 0
1.504856e+00 7.672847e-04 0
1.503882e+00 7.472839e-04 0
1.502926e+00 7.221137e-04 0
1.501996e+00 6.874747e-04 0
1.501098e+00 6.029078e-04 0
1.500248e+00 6.878236e-04 0
1.500248e+00 8.369470e-04 0
2.818415e+00 -7.948183e-05 0
2.818415e+00 -7.652158e-05 0
2.818445e+00 -5.848772e-05 0
2.818463e+00 -1.764148e-05 0
2.818461e+00 4.500592e-05 0
2.818428e+00 1.307625e-04 0
2.818355e+00 2.418270e-04 0
2.818229e+00 3.809793e-04 0
2.818038e+00 5.515354e-04 0
2.817769e+00 7.574307e-04 0
2.817405e+00 1.003085e-03 0
2.816928e+00 1.293531e-03 0
2.816319e+00 1.634468e-03 0
2.815555e+00 2.032114e-03 0
2.814611e+00 2.493503e-03 0
2.813457e+00 3.026659e-03 0
2.812061e+00 3.640742e-03 0
2.810388e+00 4.346510e-03 0
2.808397e+00 5.156585e-03 0
2.806040e+00 6.085910e-03 0
2.803265e+00 7.152391e-03 0
2.800010e+00 8.377479e-03 0
2.796203e+00 9.786897e-03 0
2.791761e+00 1.141098e-02 0
2.786585e+00 1.328423e-02 0
2.780558e+00 1.544306e-02 0
2.773541e+00 1.791886e-02 0
2.765369e+00 2.072212e-02 0
2.755857e+00 2.380924e-02 0
2.744809e+00 2.702050e-02 0
2.732075e+00 2.998266e-02 0
2.717699e+00 3.200930e-02 0
2.702247e+00 3.215733e-02 0
2.687245e+00 2.978940e-02 0
2.674676e+00 2.542253e-02 0
2.665052e+00 2.033084e-02 0
2.658023e+00 1.549321e-02 0
2.653015e+00 1.137318e-02 0
2.649505e+00 8.075753e-03 0
2.647085e+00 5.529556e-03 0
2.645453e+00 3.601247e-03 0
2.644392e+00 2.149641e-03 0
2.643736e+00 1.055711e-03 0
2.643323e+00 2.180826e-04 0
2.643031e+00 -4.260208e-04 0
2.642817e+00 -8.956988e-04 0
2.642649e+00 -1.209901e-03 0
2.642506e+00 -1.392032e-03 0
2.642370e+00 -1.464977e-03 0
2.642229e+00 -1.449462e-03 0
2.642072e+00 -1.363616e-03 0
2.641890e+00 -1.223020e-03 0
2.641679e+00 -1.040944e-03 0
2.641432e+00 -8.287122e-04 0
2.641148e+00 -5.961254e-04 0
2.640825e+00 -3.516167e-04 0
2.640472e+00 -1.121688e-04 0
2.640094e+00 1.051284e-04 0
2.639689e+00 2.997821e-04 0
2.639247e+00 4.776778e-04 0
2.638750e+00 6.405413e-04 0
2.638193e+00 7.893052e-04 0
2.637580e+00 9.268114e-04 0
2.636912e+00 1.055047e-03 0
2.636193e+00 1.175245e-03 0
2.635426e+00 1.288200e-03 0
2.634612e+00 1.394463e-03 0
2.633755e+00 1.494463e-03 0
2.632857e+00 1.588566e-03 0
2.631920e+00 1.677093e-03 0
2.630947e+00 1.760332e-03 0
2.629939e+00 1.838537e-03 0
2.628899e+00 1.911941e-03 0
2.627829e+00 1.980764e-03 0
2.626730e+00 2.045225e-03 0
2.625604e+00 2.105540e-03 0
2.624453e+00 2.161914e-03 0
2.623278e+00 2.214540e-03 0
2.622081e+00 2.263598e-03 0
2.620863e+00 2.309261e-03 0
2.619625e+00 2.351704e-03 0
2.618370e+00 2.391096e-03 0
2.617097e+00 2.427598e-03 0
2.615809e+00 2.461359e-03 0
2.614506e+00 2.492513e-03 0
2.613189e+00 2.521188e-03 0
2.611860e+00 2.547508e-03 0
2.610519e+00 2.571602e-03 0
2.609167e+00 2.593594e-03 0
2.607805e+00 2.613599e-03 0
2.606434e+00 2.631718e-03 0
2.605054e+00 2.648045e-03 0
2.603666e+00 2.662668e-03 0
2.602272e+00 2.675676e-03 0
2.600871e+00 2.687156e-03 0
2.599464e+00 2.697191e-03 0
2.598052e+00 2.705860e-03 0
2.596636e+00 2.713233e-03 0
2.595215e+00 2.719376e-03 0
2.593791e+00 2.724352e-03 0
2.592363e+00 2.728218e-03 0
2.590933e+00 2.731029e-03 0
2.589500e+00 2.732838e-03 0
2.588066e+00 2.733697e-03 0
2.586630e+00 2.733656e-03 0
2.585193e+00 2.732764e-03 0
2.583755e+00 2.731062e-03 0
2.582316e+00 2.728588e-03 0
2.580878e+00 2.725373e-03 0
2.579439e+00 2.721446e-03 0
2.578001e+00 2.716841e-03 0
2.576564e+00 2.711590e-03 0
2.575128e+00 2.705725e-03 0
2.573693e+00 2.699271e-03 0
2.572260e+00 2.692253e-03 0
2.570828e+00 2.684688e-03 0
2.569398e+00 2.676594e-03 0
2.567971e+00 2.667989e-03 0
2.566546e+00 2.658889e-03 0
2.565123e+00 2.649310e-03 0
2.563704e+00 2.639268e-03 0
2.562287e+00 2.628774e-03 0
2.560874e+00 2.617837e-03 0
2.559464e+00 2.606466e-03 0
2.558058e+00 2.594669e-03 0
2.556655e+00 2.582452e-03 0
2.555257e+00 2.569821e-03 0
2.553862e+00 2.556780e-03 0
2.552473e+00 2.543332e-03 0
2.551087e+00 2.529480e-03 0
2.549707e+00 2.515226e-03 0
2.548331e+00 2.500571e-03 0
2.546960e+00 2.485516e-03 0
2.545595e+00 2.470061e-03 0
2.544235e+00 2.454205e-03 0
2.542881e+00 2.437947e-03 0
2.541532e+00 2.421283e-03 0
2.540190e+00 2.404211e-03 0
2.538853e+00 2.386722e-03 0
2.537523e+00 2.368809e-03 0
2.536200e+00 2.350459e-03 0
2.534884e+00 2.331656e-03 0
2.533574e+00 2.312378e-03 0
2.532272e+00 2.292593e-03 0
2.530977e+00 2.272257e-03 0
2.529690e+00 2.251307e-03 0
2.528410e+00 2.229656e-03 0
2.527140e+00 2.207173e-03 0
2.525877e+00 2.183669e-03 0
2.524624e+00 2.158859e-03 0
2.523381e+00 2.132310e-03 0
2.522148e+00 2.103344e-03 0
2.520926e+00 2.070869e-03 0
2.519717e+00 2.033034e-03 0
2.518523e+00 1.986592e-03 0
2.517344e+00 1.925545e-03 0
2.516181e+00 1.840549e-03 0
2.515001e+00 1.822533e-03 0
2.515001e+00 1.854356e-03 0
3.372147e+00 -1.210270e-04 0
3.372147e+00 -1.145737e-04 0
3.372184e+00 -8.739297e-05 0
3.372212e+00 -3.138016e-05 0
3.372225e+00 5.465368e-05 0
3.372216e+00 1.728702e-04 0
3.372179e+00 3.262123e-04 0
3.372104e+00 5.185232e-04 0
3.371984e+00 7.545011e-04 0
3.371806e+00 1.039557e-03 0
3.371560e+00 1.379911e-03 0
3.371233e+00 1.782636e-03 0
3.370809e+00 2.255522e-03 0
3.370272e+00 2.807268e-03 0
3.369602e+00 3.447657e-03 0
3.368779e+00 4.187695e-03 0
3.367778e+00 5.040070e-03 0
3.366574e+00 6.019503e-03 0
3.365136e+00 7.143214e-03 0
3.363432e+00 8.431679e-03 0
3.361423e+00 9.909442e-03 0
3.359067e+00 1.160621e-02 0
3.356312e+00 1.355802e-02 0
3.353101e+00 1.580841e-02 0
3.349360e+00 1.840924e-02 0
3.345001e+00 2.142002e-02 0
3.339905e+00 2.490342e-02 0
3.333913e+00 2.891150e-02 0
3.326790e+00 3.344998e-02 0
3.318192e+00 3.839367e-02 0
3.307620e+00 4.330521e-02 0
3.294504e+00 4.711750e-02 0
3.278768e+00 4.787022e-02 0
3.262805e+00 4.381150e-02 0
3.251309e+00 3.618341e-02 0
3.244043e+00 2.794278e-02 0
3.239623e+00 2.069313e-02 0
3.236928e+00 1.488307e-02 0
3.235262e+00 1.043195e-02 0
3.234224e+00 7.096857e-03 0
3.233583e+00 4.624979e-03 0
3.233198e+00 2.802152e-03 0
3.232972e+00 1.462848e-03 0
3.232838e+00 4.882024e-04 0
3.232733e+00 -2.129046e-04 0
3.232623e+00 -7.032014e-04 0
3.232494e+00 -1.019612e-03 0
3.232341e+00 -1.193535e-03 0
3.232162e+00 -1.251792e-03 0
3.231956e+00 -1.217224e-03 0
3.231725e+00 -1.109224e-03 0
3.231468e+00 -9.441997e-04 0
3.231186e+00 -7.360012e-04 0
3.230881e+00 -4.965455e-04 0
3.230553e+00 -2.379909e-04 0
3.230207e+00 2.298468e-05 0
3.229842e+00 2.788966e-04 0
3.229451e+00 5.304694e-04 0
3.229024e+00 7.726444e-04 0
3.228556e+00 1.001664e-03 0
3.228046e+00 1.216663e-03 0
3.227494e+00 1.417886e-03 0
3.226899e+00 1.606511e-03 0
3.226264e+00 1.783748e-03 0
3.225588e+00 1.950577e-03 0
3.224876e+00 2.107758e-03 0
3.224128e+00 2.255902e-03 0
3.223345e+00 2.395526e-03 0
3.222531e+00 2.527091e-03 0
3.221687e+00 2.651010e-03 0
3.220814e+00 2.767655e-03 0
3.219915e+00 2.877365e-03 0
3.218990e+00 2.980455e-03 0
3.218041e+00 3.077237e-03 0
3.217069e+00 3.168014e-03 0
3.216076e+00 3.253081e-03 0
3.215063e+00 3.332719e-03 0
3.214031e+00 3.407188e-03 0
3.212982e+00 3.476738e-03 0
3.211916e+00 3.541611e-03 0
3.210834e+00 3.602047e-03 0
3.209738e+00 3.658278e-03 0
3.208628e+00 3.710520e-03 0
3.207506e+00 3.758974e-03 0
3.206372e+00 3.803825e-03 0
3.205226e+00 3.845253e-03 0
3.204070e+00 3.883439e-03 0
3.202905e+00 3.918557e-03 0
3.201730e+00 3.950774e-03 0
3.200548e+00 3.980243e-03 0
3.199357e+00 4.007101e-03 0
3.198160e+00 4.031477e-03 0
3.196955e+00 4.053498e-03 0
3.195745e+00 4.073288e-03 0
3.194529e+00 4.090969e-03 0
3.193309e+00 4.106654e-03 0
3.192083e+00 4.120447e-03 0
3.190853e+00 4.132443e-03 0
3.189620e+00 4.142732e-03 0
3.188383e+00 4.151398e-03 0
3.187143e+00 4.158525e-03 0
3.185900e+00 4.164189e-03 0
3.184655e+00 4.168465e-03 0
3.183408e+00 4.171426e-03 0
3.182158e+00 4.173137e-03 0
3.180908e+00 4.173662e-03 0
3.179656e+00 4.173054e-03 0
3.178403e+00 4.171364e-03 0
3.177150e+00 4.168639e-03 0
3.175896e+00 4.164924e-03 0
3.174641e+00 4.160266e-03 0
3.173387e+00 4.154708e-03 0
3.172133e+00 4.148288e-03 0
3.170879e+00 4.141042e-03 0
3.169626e+00 4.132998e-03 0
3.168373e+00 4.124186e-03 0
3.167121e+00 4.114629e-03 0
3.165871e+00 4.104354e-03 0
3.164622e+00 4.093384e-03 0
3.163374e+00 4.081739e-03 0
3.162127e+00 4.069438e-03 0
3.160883e+00 4.056495e-03 0
3.159640e+00 4.042924e-03 0
3.158400e+00 4.028738e-03 0
3.157161e+00 4.013947e-03 0
3.155925e+00 3.998560e-03 0
3.154691e+00 3.982584e-03 0
3.153461e+00 3.966024e-03 0
3.152232e+00 3.948884e-03 0
3.151007e+00 3.931167e-03 0
3.149785e+00 3.912877e-03 0
3.148566e+00 3.894013e-03 0
3.147351e+00 3.874577e-03 0
3.146138e+00 3.854567e-03 0
3.144930e+00 3.833981e-03 0
3.143725e+00 3.812816e-03 0
3.142525e+00 3.791067e-03 0
3.141328e+00 3.768728e-03 0
3.140136e+00 3.745789e-03 0
3.138948e+00 3.722238e-03 0
3.137765e+00 3.698059e-03 0
3.136586e+00 3.673230e-03 0
3.135412e+00 3.647721e-03 0
3.134243e+00 3.621492e-03 0
3.133080e+00 3.594486e-03 0
3.131922e+00 3.566625e-03 0
3.130769e+00 3.537796e-03 0
3.129623e+00 3.507837e-03 0
3.128482e+00 3.476511e-03 0
3.127347e+00 3.443472e-03 0
3.126219e+00 3.408206e-03 0
3.125098e+00 3.369943e-03 0
3.123984e+00 3.327520e-03 0
3.122876e+00 3.279186e-03 0
3.121776e+00 3.222394e-03 0
3.120680e+00 3.153921e-03 0
3.119583e+00 3.070680e-03 0
3.118477e+00 2.991626e-03 0
3.118477e+00 2.958224e-03 0
3.675788e+00 -1.677258e-04 0
3.675788e+00 -1.593324e-04 0
3.675833e+00 -1.264750e-04 0
3.675873e+00 -6.055013e-05 0
3.675903e+00 4.045477e-05 0
3.675921e+00 1.792811e-04 0
3.675922e+00 3.597284e-04 0
3.675900e+00 5.865366e-04 0
3.675849e+00 8.653496e-04 0
3.675762e+00 1.202787e-03 0
3.675631e+00 1.606442e-03 0
3.675448e+00 2.084747e-03 0
3.675201e+00 2.647056e-03 0
3.674879e+00 3.303766e-03 0
3.674468e+00 4.066405e-03 0
3.673954e+00 4.947975e-03 0
3.673321e+00 5.963294e-03 0
3.672552e+00 7.129373e-03 0
3.671627e+00 8.466095e-03 0
3.670526e+00 9.997008e-03 0
3.669225e+00 1.175043e-02 0
3.667700e+00 1.376092e-02 0
3.665921e+00 1.607104e-02 0
3.663855e+00 1.873387e-02 0
3.661460e+00 2.181611e-02 0
3.658681e+00 2.540200e-02 0
3.655436e+00 2.959807e-02 0
3.651593e+00 3.453661e-02 0
3.646911e+00 4.036896e-02 0
3.640923e+00 4.721343e-02 0
3.632689e+00 5.493400e-02 0
3.620390e+00 6.239986e-02 0
3.601218e+00 6.554689e-02 0
3.578697e+00 5.871265e-02 0
3.568016e+00 4.518418e-02 0
3.564151e+00 3.264014e-02 0
3.563190e+00 2.298818e-02 0
3.563295e+00 1.596684e-02 0
3.563721e+00 1.092375e-02 0
3.564193e+00 7.297870e-03 0
3.564621e+00 4.682117e-03 0
3.564978e+00 2.793061e-03 0
3.565259e+00 1.434565e-03 0
3.565461e+00 4.702034e-04 0
3.565590e+00 -1.989518e-04 0
3.565644e+00 -6.437592e-04 0
3.565628e+00 -9.126752e-04 0
3.565551e+00 -1.041828e-03 0
3.565419e+00 -1.059621e-03 0
3.565241e+00 -9.891037e-04 0
3.565024e+00 -8.493175e-04 0
3.564774e+00 -6.561158e-04 0
3.564496e+00 -4.223471e-04 0
3.564193e+00 -1.612299e-04 0
3.563869e+00 1.138563e-04 0
3.563524e+00 3.968438e-04 0
3.563153e+00 6.834718e-04 0
3.562755e+00 9.670794e-04 0
3.562329e+00 1.242815e-03 0
3.561874e+00 1.507368e-03 0
3.561390e+00 1.759112e-03 0
3.560874e+00 1.997560e-03 0
3.560328e+00 2.222980e-03 0
3.559751e+00 2.435952e-03 0
3.559146e+00 2.637111e-03 0
3.558512e+00 2.827069e-03 0
3.557852e+00 3.006391e-03 0
3.557166e+00 3.175608e-03 0
3.556457e+00 3.335214e-03 0
3.555724e+00 3.485668e-03 0
3.554970e+00 3.627391e-03 0
3.554196e+00 3.760778e-03 0