<?xml version="1.0"?>
<VTKFile type="StructuredGrid">
<StructuredGrid WholeExtent="0 158 0 30 0 0 ">
<Piece Extent="0 158 0 30 0 0 ">
<Points>
<DataArray type="Float64" format="ascii" NumberOfComponents="3">
0.000000e+00 0.000000e+00 0.000000e+00
3.164557e-02 0.000000e+00 0.000000e+00
6.329114e-02 0.000000e+00 0.000000e+00
9.493671e-02 0.000000e+00 0.000000e+00
1.265823e-01 0.000000e+00 0.000000e+00
1.582278e-01 0.000000e+00 0.000000e+00
1.898734e-01 0.000000e+00 0.000000e+00
2.215190e-01 0.000000e+00 0.000000e+00
2.531646e-01 0.000000e+00 0.000000e+00
2.848101e-01 0.000000e+00 0.000000e+00
3.164557e-01 0.000000e+00 0.000000e+00
3.481013e-01 0.000000e+00 0.000000e+00
3.797468e-01 0.000000e+00 0.000000e+00
4.113924e-01 0.000000e+00 0.000000e+00
4.430380e-01 0.000000e+00 0.000000e+00
4.746835e-01 0.000000e+00 0.000000e+00
5.063291e-01 0.000000e+00 0.000000e+00
5.379747e-01 0.000000e+00 0.000000e+00
5.696203e-01 0.000000e+00 0.000000e+00
6.012658e-01 0.000000e+00 0.000000e+00
6.329114e-01 0.000000e+00 0.000000e+00
6.645570e-01 0.000000e+00 0.000000e+00
6.962025e-01 0.000000e+00 0.000000e+00
7.278481e-01 0.000000e+00 0.000000e+00
7.594937e-01 0.000000e+00 0.000000e+00
7.911392e-01 0.000000e+00 0.000000e+00
8.227848e-01 0.000000e+00 0.000000e+00
8.544304e-01 0.000000e+00 0.000000e+00
8.860759e-01 0.000000e+00 0.000000e+00
9.177215e-01 0.000000e+00 0.000000e+00
9.493671e-01 0.000000e+00 0.000000e+00
9.810127e-01 0.000000e+00 0.000000e+00
1.012658e+00 0.000000e+00 0.000000e+00
1.044304e+00 0.000000e+00 0.000000e+00
1.075949e+00 0.000000e+00 0.000000e+00
1.107595e+00 0.000000e+00 0.000000e+00
1.139241e+00 0.000000e+00 0.000000e+00
1.170886e+00 0.000000e+00 0.000000e+00
1.202532e+00 0.000000e+00 0.000000e+00
1.234177e+00 0.000000e+00 0.000000e+00
1.265823e+00 0.000000e+00 0.000000e+00
1.297468e+00 0.000000e+00 0.000000e+00
1.329114e+00 0.000000e+00 0.000000e+00
1.360759e+00 0.000000e+00 0.000000e+00
1.392405e+00 0.000000e+00 0.000000e+00
1.424051e+00 0.000000e+00 0.000000e+00
1.455696e+00 0.000000e+00 0.000000e+00
1.487342e+00 0.000000e+00 0.000000e+00
1.518987e+00 0.000000e+00 0.000000e+00
1.550633e+00 0.000000e+00 0.000000e+00
1.582278e+00 0.000000e+00 0.000000e+00
1.613924e+00 0.000000e+00 0.000000e+00
1.645570e+00 0.000000e+00 0.000000e+00
1.677215e+00 0.000000e+00 0.000000e+00
1.708861e+00 0.000000e+00 0.000000e+00
1.740506e+00 0.000000e+00 0.000000e+00
1.772152e+00 0.000000e+00 0.000000e+00
1.803797e+00 0.000000e+00 0.000000e+00
1.835443e+00 0.000000e+00 0.000000e+00
1.867089e+00 0.000000e+00 0.000000e+00
1.898734e+00 0.000000e+00 0.000000e+00
1.930380e+00 0.000000e+00 0.000000e+00
1.962025e+00 0.000000e+00 0.000000e+00
1.993671e+00 0.000000e+00 0.000000e+00
2.025316e+00 0.000000e+00 0.000000e+00
2.056962e+00 0.000000e+00 0.000000e+00
2.088608e+00 0.000000e+00 0.000000e+00
2.120253e+00 0.000000e+00 0.000000e+00
2.151899e+00 0.000000e+00 0.000000e+00
2.183544e+00 0.000000e+00 0.000000e+00
2.215190e+00 0.000000e+00 0.000000e+00
2.246835e+00 0.000000e+00 0.000000e+00
2.278481e+00 0.000000e+00 0.000000e+00
2.310127e+00 0.000000e+00 0.000000e+00
2.341772e+00 0.000000e+00 0.000000e+00
2.373418e+00 0.000000e+00 0.000000e+00
2.405063e+00 0.000000e+00 0.000000e+00
2.436709e+00 0.000000e+00 0.000000e+00
2.468354e+00 0.000000e+00 0.000000e+00
2.500000e+00 0.000000e+00 0.000000e+00
2.531646e+00 0.000000e+00 0.000000e+00
2.563291e+00 0.000000e+00 0.000000e+00
2.594937e+00 0.000000e+00 0.000000e+00
2.626582e+00 0.000000e+00 0.000000e+00
2.658228e+00 0.000000e+00 0.000000e+00
2.689873e+00 0.000000e+00 0.000000e+00
2.721519e+00 0.000000e+00 0.000000e+00
2.753165e+00 0.000000e+00 0.000000e+00
2.784810e+00 0.000000e+00 0.000000e+00
2.816456e+00 0.000000e+00 0.000000e+00
2.848101e+00 0.000000e+00 0.000000e+00
2.879747e+00 0.000000e+00 0.000000e+00
2.911392e+00 0.000000e+00 0.000000e+00
2.943038e+00 0.000000e+00 0.000000e+00
2.974684e+00 0.000000e+00 0.000000e+00
3.006329e+00 0.000000e+00 0.000000e+00
3.037975e+00 0.000000e+00 0.000000e+00
3.069620e+00 0.000000e+00 0.000000e+00
3.101266e+00 0.000000e+00 0.000000e+00
3.132911e+00 0.000000e+00 0.000000e+00
3.164557e+00 0.000000e+00 0.000000e+00
3.196203e+00 0.000000e+00 0.000000e+00
3.227848e+00 0.000000e+00 0.000000e+00
3.259494e+00 0.000000e+00 0.000000e+00
3.291139e+00 0.000000e+00 0.000000e+00
3.322785e+00 0.000000e+00 0.000000e+00
3.354430e+00 0.000000e+00 0.000000e+00
3.386076e+00 0.000000e+00 0.000000e+00
3.417722e+00 0.000000e+00 0.000000e+00
3.449367e+00 0.000000e+00 0.000000e+00
3.481013e+00 0.000000e+00 0.000000e+00
3.512658e+00 0.000000e+00 0.000000e+00
3.544304e+00 0.000000e+00 0.000000e+00
3.575949e+00 0.000000e+00 0.000000e+00
3.607595e+00 0.000000e+00 0.000000e+00
3.639241e+00 0.000000e+00 0.000000e+00
3.670886e+00 0.000000e+00 0.000000e+00
3.702532e+00 0.000000e+00 0.000000e+00
3.734177e+00 0.000000e+00 0.000000e+00
3.765823e+00 0.000000e+00 0.000000e+00
3.797468e+00 0.000000e+00 0.000000e+00
3.829114e+00 0.000000e+00 0.000000e+00
3.860759e+00 0.000000e+00 0.000000e+00
3.892405e+00 0.000000e+00 0.000000e+00
3.924051e+00 0.000000e+00 0.000000e+00
3.955696e+00 0.000000e+00 0.000000e+00
3.987342e+00 0.000000e+00 0.000000e+00
4.018987e+00 0.000000e+00 0.000000e+00
4.050633e+00 0.000000e+00 0.000000e+00
4.082278e+00 0.000000e+00 0.000000e+00
4.113924e+00 0.000000e+00 0.000000e+00
4.145570e+00 0.000000e+00 0.000000e+00
4.177215e+00 0.000000e+00 0.000000e+00
4.208861e+00 0.000000e+00 0.000000e+00
4.240506e+00 0.000000e+00 0.000000e+00
4.272152e+00 0.000000e+00 0.000000e+00
4.303797e+00 0.000000e+00 0.000000e+00
4.335443e+00 0.000000e+00 0.000000e+00
4.367089e+00 0.000000e+00 0.000000e+00
4.398734e+00 0.000000e+00 0.000000e+00
4.430380e+00 0.000000e+00 0.000000e+00
4.462025e+00 0.000000e+00 0.000000e+00
4.493671e+00 0.000000e+00 0.000000e+00
4.525316e+00 0.000000e+00 0.000000e+00
4.556962e+00 0.000000e+00 0.000000e+00
4.588608e+00 0.000000e+00 0.000000e+00
4.620253e+00 0.000000e+00 0.000000e+00
4.651899e+00 0.000000e+00 0.000000e+00
4.683544e+00 0.000000e+00 0.000000e+00
4.715190e+00 0.000000e+00 0.000000e+00
4.746835e+00 0.000000e+00 0.000000e+00
4.778481e+00 0.000000e+00 0.000000e+00
4.810127e+00 0.000000e+00 0.000000e+00
4.841772e+00 0.000000e+00 0.000000e+00
4.873418e+00 0.000000e+00 0.000000e+00
4.905063e+00 0.000000e+00 0.000000e+00
4.936709e+00 0.000000e+00 0.000000e+00
4.968354e+00 0.000000e+00 0.000000e+00
5.000000e+00 0.000000e+00 0.000000e+00
0.000000e+00 3.333333e-02 0.000000e+00
3.164557e-02 3.333333e-02 0.000000e+00
6.329114e-02 3.333333e-02 0.000000e+00
9.493671e-02 3.333333e-02 0.000000e+00
1.265823e-01 3.333333e-02 0.000000e+00
1.582278e-01 3.333333e-02 0.000000e+00
1.898734e-01 3.333333e-02 0.000000e+00
2.215190e-01 3.333333e-02 0.000000e+00
2.531646e-01 3.333333e-02 0.000000e+00
2.848101e-01 3.333333e-02 0.000000e+00
3.164557e-01 3.333333e-02 0.000000e+00
3.481013e-01 3.333333e-02 0.000000e+00
3.797468e-01 3.333333e-02 0.000000e+00
4.113924e-01 3.333333e-02 0.000000e+00
4.430380e-01 3.333333e-02 0.000000e+00
4.746835e-01 3.333333e-02 0.000000e+00
5.063291e-01 3.333333e-02 0.000000e+00
5.379747e-01 3.333333e-02 0.000000e+00
5.696203e-01 3.333333e-02 0.000000e+00
6.012658e-01 3.333333e-02 0.000000e+00
6.329114e-01 3.333333e-02 0.000000e+00
6.645570e-01 3.333333e-02 0.000000e+00
6.962025e-01 3.333333e-02 0.000000e+00
7.278481e-01 3.333333e-02 0.000000e+00
7.594937e-01 3.333333e-02 0.000000e+00
7.911392e-01 3.333333e-02 0.000000e+00
8.227848e-01 3.333333e-02 0.000000e+00
8.544304e-01 3.333333e-02 0.000000e+00
8.860759e-01 3.333333e-02 0.000000e+00
9.177215e-01 3.333333e-02 0.000000e+00
9.493671e-01 3.333333e-02 0.000000e+00
9.810127e-01 3.333333e-02 0.000000e+00
1.012658e+00 3.333333e-02 0.000000e+00
1.044304e+00 3.333333e-02 0.000000e+00
1.075949e+00 3.333333e-02 0.000000e+00
1.107595e+00 3.333333e-02 0.000000e+00
1.139241e+00 3.333333e-02 0.000000e+00
1.170886e+00 3.333333e-02 0.000000e+00
1.202532e+00 3.333333e-02 0.000000e+00
1.234177e+00 3.333333e-02 0.000000e+00
1.265823e+00 3.333333e-02 0.000000e+00
1.297468e+00 3.333333e-02 0.000000e+00
1.329114e+00 3.333333e-02 0.000000e+00
1.360759e+00 3.333333e-02 0.000000e+00
1.392405e+00 3.333333e-02 0.000000e+00
1.424051e+00 3.333333e-02 0.000000e+00
1.455696e+00 3.333333e-02 0.000000e+00
1.487342e+00 3.333333e-02 0.000000e+00
1.518987e+00 3.333333e-02 0.000000e+00
1.550633e+00 3.333333e-02 0.000000e+00
1.582278e+00 3.333333e-02 0.000000e+00
1.613924e+00 3.333333e-02 0.000000e+00
1.645570e+00 3.333333e-02 0.000000e+00
1.677215e+00 3.333333e-02 0.000000e+00
1.708861e+00 3.333333e-02 0.000000e+00
1.740506e+00 3.333333e-02 0.000000e+00
1.772152e+00 3.333333e-02 0.000000e+00
1.803797e+00 3.333333e-02 0.000000e+00
1.835443e+00 3.333333e-02 0.000000e+00
1.867089e+00 3.333333e-02 0.000000e+00
1.898734e+00 3.333333e-02 0.000000e+00
1.930380e+00 3.333333e-02 0.000000e+00
1.962025e+00 3.333333e-02 0.000000e+00
1.993671e+00 3.333333e-02 0.000000e+00
2.025316e+00 3.333333e-02 0.000000e+00
2.056962e+00 3.333333e-02 0.000000e+00
2.088608e+00 3.333333e-02 0.000000e+00
2.120253e+00 3.333333e-02 0.000000e+00
2.151899e+00 3.333333e-02 0.000000e+00
2.183544e+00 3.333333e-02 0.000000e+00
2.215190e+00 3.333333e-02 0.000000e+00
2.246835e+00 3.333333e-02 0.000000e+00
2.278481e+00 3.333333e-02 0.000000e+00
2.310127e+00 3.333333e-02 0.000000e+00
2.341772e+00 3.333333e-02 0.000000e+00
2.373418e+00 3.333333e-02 0.000000e+00
2.405063e+00 3.333333e-02 0.000000e+00
2.436709e+00 3.333333e-02 0.000000e+00
2.468354e+00 3.333333e-02 0.000000e+00
2.500000e+00 3.333333e-02 0.000000e+00
2.531646e+00 3.333333e-02 0.000000e+00
2.563291e+00 3.333333e-02 0.000000e+00
2.594937e+00 3.333333e-02 0.000000e+00
2.626582e+00 3.333333e-02 0.000000e+00
2.658228e+00 3.333333e-02 0.000000e+00
2.689873e+00 3.333333e-02 0.000000e+00
2.721519e+00 3.333333e-02 0.000000e+00
2.753165e+00 3.333333e-02 0.000000e+00
2.784810e+00 3.333333e-02 0.000000e+00
2.816456e+00 3.333333e-02 0.000000e+00
2.848101e+00 3.333333e-02 0.000000e+00
2.879747e+00 3.333333e-02 0.000000e+00
[...]
<PointData>
<DataArray Name="Velocity" type="Float64" format="ascii" NumberOfComponents="3">
0.000000e+00 0.000000e+00 0
0.000000e+00 0.000000e+00 0
0.000000e+00 0.000000e+00 0
0.000000e+00 0.000000e+00 0
0.000000e+00 0.000000e+00 0
0.000000e+00 0.000000e+00 0
0.000000e+00 0.000000e+00 0
0.000000e+00 0.000000e+00 0
0.000000e+00 0.000000e+00 0
0.000000e+00 0.000000e+00 0
0.000000e+00 0.000000e+00 0
0.000000e+00 0.000000e+00 0
0.000000e+00 0.000000e+00 0
0.000000e+00 0.000000e+00 0
0.000000e+00 0.000000e+00 0
0.000000e+00 0.000000e+00 0
0.000000e+00 0.000000e+00 0
0.000000e+00 0.000000e+00 0
0.000000e+00 0.000000e+00 0
-7.840801e-18 0.000000e+00 0
0.000000e+00 0.000000e+00 0
0.000000e+00 0.000000e+00 0
0.000000e+00 0.000000e+00 0
4.941775e-18 0.000000e+00 0
0.000000e+00 0.000000e+00 0
0.000000e+00 0.000000e+00 0
0.000000e+00 0.000000e+00 0
-1.921262e-17 0.000000e+00 0
0.000000e+00 0.000000e+00 0
0.000000e+00 0.000000e+00 0
0.000000e+00 0.000000e+00 0
1.676588e-17 0.000000e+00 0
0.000000e+00 0.000000e+00 0
0.000000e+00 0.000000e+00 0
0.000000e+00 0.000000e+00 0
0.000000e+00 0.000000e+00 0
0.000000e+00 0.000000e+00 0
0.000000e+00 0.000000e+00 0
2.088034e-17 0.000000e+00 0
0.000000e+00 0.000000e+00 0
0.000000e+00 0.000000e+00 0
0.000000e+00 0.000000e+00 0
0.000000e+00 0.000000e+00 0
0.000000e+00 0.000000e+00 0
0.000000e+00 0.000000e+00 0
0.000000e+00 0.000000e+00 0
-1.309549e-17 0.000000e+00 0
0.000000e+00 0.000000e+00 0
0.000000e+00 0.000000e+00 0
0.000000e+00 0.000000e+00 0
0.000000e+00 0.000000e+00 0
0.000000e+00 0.000000e+00 0
0.000000e+00 0.000000e+00 0
0.000000e+00 0.000000e+00 0
-4.176144e-18 0.000000e+00 0
0.000000e+00 0.000000e+00 0
0.000000e+00 0.000000e+00 0
0.000000e+00 0.000000e+00 0
0.000000e+00 0.000000e+00 0
0.000000e+00 0.000000e+00 0
0.000000e+00 0.000000e+00 0
0.000000e+00 0.000000e+00 0
4.318525e-18 0.000000e+00 0
0.000000e+00 0.000000e+00 0
0.000000e+00 0.000000e+00 0
0.000000e+00 0.000000e+00 0
0.000000e+00 0.000000e+00 0
0.000000e+00 0.000000e+00 0
0.000000e+00 0.000000e+00 0
0.000000e+00 0.000000e+00 0
0.000000e+00 0.000000e+00 0
0.000000e+00 0.000000e+00 0
0.000000e+00 0.000000e+00 0
0.000000e+00 0.000000e+00 0
0.000000e+00 0.000000e+00 0
0.000000e+00 0.000000e+00 0
0.000000e+00 0.000000e+00 0
0.000000e+00 0.000000e+00 0
0.000000e+00 0.000000e+00 0
0.000000e+00 0.000000e+00 0
0.000000e+00 0.000000e+00 0
0.000000e+00 0.000000e+00 0
0.000000e+00 0.000000e+00 0
0.000000e+00 0.000000e+00 0
0.000000e+00 0.000000e+00 0
0.000000e+00 0.000000e+00 0
0.000000e+00 0.000000e+00 0
0.000000e+00 0.000000e+00 0
0.000000e+00 0.000000e+00 0
0.000000e+00 0.000000e+00 0
0.000000e+00 0.000000e+00 0
0.000000e+00 0.000000e+00 0
0.000000e+00 0.000000e+00 0
0.000000e+00 0.000000e+00 0
0.000000e+00 0.000000e+00 0
0.000000e+00 0.000000e+00 0
0.000000e+00 0.000000e+00 0
0.000000e+00 0.000000e+00 0
0.000000e+00 0.000000e+00 0
0.000000e+00 0.000000e+00 0
0.000000e+00 0.000000e+00 0
0.000000e+00 0.000000e+00 0
0.000000e+00 0.000000e+00 0
0.000000e+00 0.000000e+00 0
0.000000e+00 0.000000e+00 0
0.000000e+00 0.000000e+00 0
0.000000e+00 0.000000e+00 0
0.000000e+00 0.000000e+00 0
0.000000e+00 0.000000e+00 0
0.000000e+00 0.000000e+00 0
0.000000e+00 0.000000e+00 0
0.000000e+00 0.000000e+00 0
0.000000e+00 0.000000e+00 0
0.000000e+00 0.000000e+00 0
0.000000e+00 0.000000e+00 0
0.000000e+00 0.000000e+00 0
0.000000e+00 0.000000e+00 0
0.000000e+00 0.000000e+00 0
0.000000e+00 0.000000e+00 0
0.000000e+00 0.000000e+00 0
0.000000e+00 0.000000e+00 0
0.000000e+00 0.000000e+00 0
0.000000e+00 0.000000e+00 0
0.000000e+00 0.000000e+00 0
0.000000e+00 0.000000e+00 0
0.000000e+00 0.000000e+00 0
0.000000e+00 0.000000e+00 0
0.000000e+00 0.000000e+00 0
0.000000e+00 0.000000e+00 0
0.000000e+00 0.000000e+00 0
0.000000e+00 0.000000e+00 0
0.000000e+00 0.000000e+00 0
0.000000e+00 0.000000e+00 0
0.000000e+00 0.000000e+00 0
0.000000e+00 0.000000e+00 0
0.000000e+00 0.000000e+00 0
0.000000e+00 0.000000e+00 0
0.000000e+00 0.000000e+00 0
0.000000e+00 0.000000e+00 0
0.000000e+00 0.000000e+00 0
0.000000e+00 0.000000e+00 0
0.000000e+00 0.000000e+00 0
0.000000e+00 0.000000e+00 0
0.000000e+00 0.000000e+00 0
0.000000e+00 0.000000e+00 0
0.000000e+00 0.000000e+00 0
0.000000e+00 0.000000e+00 0
0.000000e+00 0.000000e+00 0
0.000000e+00 0.000000e+00 0
0.000000e+00 0.000000e+00 0
0.000000e+00 0.000000e+00 0
0.000000e+00 0.000000e+00 0
0.000000e+00 0.000000e+00 0
0.000000e+00 0.000000e+00 0
0.000000e+00 0.000000e+00 0
0.000000e+00 0.000000e+00 0
0.000000e+00 0.000000e+00 0
0.000000e+00 0.000000e+00 0
0.000000e+00 0.000000e+00 0
1.444321e+00 -7.950437e-05 0
1.444321e+00 -8.601985e-05 0
1.444394e+00 -8.301741e-05 0
1.444449e+00 -5.361781e-05 0
1.444474e+00 -9.171450e-06 0
1.444456e+00 4.560622e-05 0
1.444381e+00 1.137395e-04 0
1.444234e+00 1.986616e-04 0
1.443998e+00 3.030424e-04 0
1.443652e+00 4.295993e-04 0
1.443175e+00 5.813503e-04 0
1.442541e+00 7.616655e-04 0
1.441720e+00 9.743525e-04 0
1.440681e+00 1.223748e-03 0
1.439386e+00 1.514758e-03 0
1.437793e+00 1.852977e-03 0
1.435853e+00 2.244886e-03 0
1.433514e+00 2.698014e-03 0
1.430712e+00 3.221182e-03 0
1.427376e+00 3.824976e-03 0
1.423423e+00 4.522108e-03 0
1.418759e+00 5.327787e-03 0
1.413272e+00 6.260187e-03 0
1.406831e+00 7.340501e-03 0
1.399283e+00 8.592384e-03 0
1.390452e+00 1.003988e-02 0
1.380135e+00 1.170188e-02 0
1.368112e+00 1.358012e-02 0
1.354167e+00 1.563592e-02 0
1.338139e+00 1.775003e-02 0
1.320020e+00 1.966755e-02 0
1.300138e+00 2.095726e-02 0
1.279379e+00 2.107644e-02 0
1.259292e+00 1.967450e-02 0
1.241593e+00 1.698865e-02 0
1.227163e+00 1.370115e-02 0
1.216061e+00 1.043897e-02 0
1.207895e+00 7.565185e-03 0
1.202125e+00 5.207371e-03 0
1.198226e+00 3.350673e-03 0
1.195756e+00 1.909790e-03 0
1.194372e+00 7.245753e-04 0
1.193816e+00 -3.564649e-04 0
1.193909e+00 -1.286948e-03 0
1.194499e+00 -1.982785e-03 0
1.195449e+00 -2.465012e-03 0
1.196635e+00 -2.762898e-03 0
1.197957e+00 -2.907594e-03 0
1.199332e+00 -2.928583e-03 0
1.200694e+00 -2.852115e-03 0
1.201990e+00 -2.700728e-03 0
1.203180e+00 -2.493312e-03 0
1.204234e+00 -2.245433e-03 0
1.205131e+00 -1.969770e-03 0
1.205854e+00 -1.676575e-03 0
1.206396e+00 -1.373923e-03 0
1.206751e+00 -1.067465e-03 0
1.206921e+00 -7.599157e-04 0
1.206923e+00 -4.601853e-04 0
1.206776e+00 -1.932188e-04 0
1.206497e+00 5.787321e-06 0
1.206098e+00 1.458460e-04 0
1.205590e+00 2.625294e-04 0
1.204983e+00 3.665662e-04 0
1.204285e+00 4.618973e-04 0
1.203503e+00 5.503085e-04 0
1.202640e+00 6.327784e-04 0
1.201704e+00 7.099390e-04 0
1.200697e+00 7.822574e-04 0
1.199624e+00 8.501109e-04 0
1.198490e+00 9.138134e-04 0
1.197297e+00 9.736249e-04 0
1.196049e+00 1.029761e-03 0
1.194750e+00 1.082406e-03 0
1.193402e+00 1.131737e-03 0
1.192008e+00 1.177933e-03 0
1.190571e+00 1.221174e-03 0
1.189093e+00 1.261634e-03 0
1.187578e+00 1.299469e-03 0
1.186027e+00 1.334809e-03 0
1.184442e+00 1.367767e-03 0
1.182826e+00 1.398452e-03 0
1.181181e+00 1.426977e-03 0
1.179509e+00 1.453457e-03 0
1.177810e+00 1.478009e-03 0
1.176088e+00 1.500733e-03 0
1.174343e+00 1.521716e-03 0
1.172578e+00 1.541031e-03 0
1.170793e+00 1.558754e-03 0
1.168991e+00 1.574963e-03 0
1.167172e+00 1.589742e-03 0
1.165337e+00 1.603174e-03 0
1.163489e+00 1.615325e-03 0
1.161627e+00 1.626251e-03 0
1.159754e+00 1.635999e-03 0
1.157870e+00 1.644614e-03 0
1.155976e+00 1.652147e-03 0
1.154073e+00 1.658656e-03 0
1.152162e+00 1.664199e-03 0
1.150244e+00 1.668823e-03 0
1.148320e+00 1.672570e-03 0
1.146390e+00 1.675470e-03 0
1.144456e+00 1.677556e-03 0
1.142517e+00 1.678861e-03 0
1.140576e+00 1.679420e-03 0
1.138631e+00 1.679267e-03 0
1.136685e+00 1.678434e-03 0
1.134738e+00 1.676947e-03 0
1.132789e+00 1.674831e-03 0
1.130841e+00 1.672110e-03 0
1.128893e+00 1.668805e-03 0
1.126945e+00 1.664936e-03 0
1.124999e+00 1.660523e-03 0
1.123056e+00 1.655582e-03 0
1.121114e+00 1.650131e-03 0
1.119175e+00 1.644185e-03 0
1.117240e+00 1.637758e-03 0
1.115308e+00 1.630865e-03 0
1.113381e+00 1.623519e-03 0
1.111458e+00 1.615735e-03 0
1.109541e+00 1.607521e-03 0
1.107628e+00 1.598886e-03 0
1.105722e+00 1.589837e-03 0
1.103822e+00 1.580375e-03 0
1.101929e+00 1.570507e-03 0
1.100042e+00 1.560236e-03 0
1.098163e+00 1.549570e-03 0
1.096292e+00 1.538515e-03 0
1.094429e+00 1.527077e-03 0
1.092574e+00 1.515258e-03 0
1.090729e+00 1.503057e-03 0
1.088892e+00 1.490475e-03 0
1.087066e+00 1.477510e-03 0
1.085249e+00 1.464158e-03 0
1.083443e+00 1.450417e-03 0
1.081648e+00 1.436285e-03 0
1.079863e+00 1.421757e-03 0
1.078091e+00 1.406828e-03 0
1.076330e+00 1.391494e-03 0
1.074582e+00 1.375747e-03 0
1.072847e+00 1.359575e-03 0
1.071125e+00 1.342963e-03 0
1.069416e+00 1.325893e-03 0
1.067722e+00 1.308338e-03 0
1.066042e+00 1.290262e-03 0
1.064378e+00 1.271614e-03 0
1.062730e+00 1.252326e-03 0
1.061097e+00 1.232300e-03 0
1.059483e+00 1.211392e-03 0
1.057886e+00 1.189394e-03 0
1.056309e+00 1.165989e-03 0
1.054752e+00 1.140692e-03 0
1.053219e+00 1.112707e-03 0
1.051711e+00 1.080630e-03 0
1.050234e+00 1.041432e-03 0
1.048794e+00 9.897603e-04 0
1.047403e+00 8.662666e-04 0
1.046078e+00 1.046370e-03 0
1.046078e+00 1.320205e-03 0
2.168235e+00 -1.565746e-04 0
2.168235e+00 -1.546912e-04 0
2.168296e+00 -1.349554e-04 0
2.168343e+00 -8.454294e-05 0
2.168370e+00 -6.791654e-06 0
2.168362e+00 9.806523e-05 0
2.168306e+00 2.335763e-04 0
2.168188e+00 4.036047e-04 0
2.167992e+00 6.127948e-04 0
2.167703e+00 8.664683e-04 0
2.167298e+00 1.170651e-03 0
2.166757e+00 1.532145e-03 0
2.166054e+00 1.958640e-03 0
2.165159e+00 2.458818e-03 0
2.164041e+00 3.042509e-03 0
2.162662e+00 3.720962e-03 0
2.160981e+00 4.507129e-03 0
2.158949e+00 5.416061e-03 0
2.156513e+00 6.465592e-03 0
2.153611e+00 7.676999e-03 0
2.150170e+00 9.075791e-03 0
2.146109e+00 1.069272e-02 0
2.141329e+00 1.256460e-02 0
2.135716e+00 1.473479e-02 0
2.129135e+00 1.725266e-02 0
2.121423e+00 2.017002e-02 0
2.112386e+00 2.353143e-02 0
2.101795e+00 2.735200e-02 0
2.089386e+00 3.157129e-02 0
2.074882e+00 3.596798e-02 0
2.058067e+00 4.002745e-02 0
2.038989e+00 4.280854e-02 0
2.018407e+00 4.302443e-02 0
1.998392e+00 3.980174e-02 0
1.981672e+00 3.384338e-02 0
1.968948e+00 2.689422e-02 0
1.959736e+00 2.029484e-02 0
1.953250e+00 1.467814e-02 0
1.948775e+00 1.018406e-02 0
1.945760e+00 6.708846e-03 0
1.943797e+00 4.060005e-03 0
1.942583e+00 2.043894e-03 0
1.941837e+00 4.887288e-04 0
1.941314e+00 -7.195927e-04 0
1.940935e+00 -1.622327e-03 0
1.940648e+00 -2.249834e-03 0
1.940417e+00 -2.642671e-03 0
1.940215e+00 -2.841333e-03 0
1.940022e+00 -2.882775e-03 0
1.939821e+00 -2.799345e-03 0
1.939600e+00 -2.618675e-03 0
1.939345e+00 -2.363983e-03 0
1.939050e+00 -2.054546e-03 0
1.938706e+00 -1.706308e-03 0
1.938309e+00 -1.332656e-03 0
1.937854e+00 -9.450741e-04 0
1.937342e+00 -5.537209e-04 0
1.936786e+00 -1.802998e-04 0
1.936190e+00 1.533754e-04 0
1.935554e+00 4.480609e-04 0
1.934866e+00 7.141793e-04 0
1.934096e+00 9.555208e-04 0
1.933242e+00 1.173891e-03 0
1.932305e+00 1.374122e-03 0
1.931289e+00 1.559671e-03 0
1.930200e+00 1.732758e-03 0
1.929042e+00 1.894863e-03 0
1.927817e+00 2.047046e-03 0
1.926531e+00 2.190126e-03 0
1.925186e+00 2.324768e-03 0
1.923785e+00 2.451529e-03 0
1.922332e+00 2.570878e-03 0
1.920829e+00 2.683225e-03 0
1.919279e+00 2.788940e-03 0
1.917685e+00 2.888379e-03 0
1.916048e+00 2.981884e-03 0
1.914372e+00 3.069784e-03 0
1.912658e+00 3.152384e-03 0
1.910909e+00 3.229960e-03 0
1.909127e+00 3.302756e-03 0
1.907312e+00 3.371004e-03 0
1.905468e+00 3.434928e-03 0
1.903595e+00 3.494749e-03 0
1.901696e+00 3.550684e-03 0
1.899771e+00 3.602934e-03 0
1.897823e+00 3.651682e-03 0
1.895853e+00 3.697092e-03 0
1.893861e+00 3.739319e-03 0
1.891850e+00 3.778515e-03 0
1.889820e+00 3.814832e-03 0
1.887772e+00 3.848420e-03 0
1.885708e+00 3.879415e-03 0
1.883629e+00 3.907939e-03 0
1.881535e+00 3.934099e-03 0
1.879428e+00 3.957995e-03 0
1.877308e+00 3.979729e-03 0
1.875176e+00 3.999404e-03 0
1.873033e+00 4.017121e-03 0
1.870880e+00 4.032975e-03 0
1.868718e+00 4.047047e-03 0
1.866547e+00 4.059412e-03 0
1.864367e+00 4.070137e-03 0
1.862180e+00 4.079292e-03 0
1.859987e+00 4.086942e-03 0
1.857787e+00 4.093151e-03 0
1.855582e+00 4.097980e-03 0
1.853371e+00 4.101484e-03 0
1.851156e+00 4.103711e-03 0
1.848937e+00 4.104709e-03 0
1.846714e+00 4.104522e-03 0
1.844488e+00 4.103191e-03 0
1.842260e+00 4.100755e-03 0
1.840029e+00 4.097248e-03 0
1.837797e+00 4.092703e-03 0
1.835563e+00 4.087150e-03 0
1.833329e+00 4.080618e-03 0
1.831094e+00 4.073133e-03 0
1.828859e+00 4.064723e-03 0
1.826624e+00 4.055410e-03 0
1.824390e+00 4.045215e-03 0
1.822157e+00 4.034156e-03 0
1.819925e+00 4.022246e-03 0
1.817695e+00 4.009493e-03 0
1.815467e+00 3.995910e-03 0
1.813242e+00 3.981506e-03 0
1.811019e+00 3.966291e-03 0
1.808800e+00 3.950274e-03 0
1.806584e+00 3.933465e-03 0
1.804372e+00 3.915867e-03 0
1.802164e+00 3.897479e-03 0
1.799961e+00 3.878302e-03 0
1.797763e+00 3.858333e-03 0
1.795570e+00 3.837567e-03 0
1.793382e+00 3.815999e-03 0
1.791201e+00 3.793626e-03 0
1.789026e+00 3.770437e-03 0
1.786857e+00 3.746423e-03 0
1.784696e+00 3.721574e-03 0
1.782542e+00 3.695875e-03 0
1.780396e+00 3.669306e-03 0
1.778258e+00 3.641844e-03 0
1.776129e+00 3.613457e-03 0
1.774009e+00 3.584104e-03 0
1.771898e+00 3.553730e-03 0
1.769798e+00 3.522264e-03 0
1.767708e+00 3.489604e-03 0
1.765628e+00 3.455611e-03 0
1.763561e+00 3.420087e-03 0
1.761506e+00 3.382749e-03 0
1.759464e+00 3.343182e-03 0
1.757436e+00 3.300769e-03 0
1.755423e+00 3.254572e-03 0
1.753428e+00 3.203102e-03 0
1.751451e+00 3.143903e-03 0
1.749496e+00 3.072791e-03 0
1.747564e+00 2.982283e-03 0
1.745658e+00 2.861124e-03 0
1.743727e+00 2.869681e-03 0
1.743727e+00 2.948089e-03 0
2.513894e+00 -2.352912e-04 0
2.513894e+00 -2.283962e-04 0
2.513964e+00 -1.973560e-04 0
2.514024e+00 -1.312174e-04 0
2.514070e+00 -2.859081e-05 0
2.514091e+00 1.128353e-04 0
2.514081e+00 2.968361e-04 0
2.514028e+00 5.285155e-04 0
2.513923e+00 8.141118e-04 0
2.513752e+00 1.160913e-03 0
2.513502e+00 1.577238e-03 0
2.513155e+00 2.072502e-03 0
2.512694e+00 2.657316e-03 0
2.512098e+00 3.343615e-03 0
2.511342e+00 4.144886e-03 0
2.510401e+00 5.076461e-03 0
2.509245e+00 6.155918e-03 0
2.507840e+00 7.403768e-03 0
2.506147e+00 8.844214e-03 0
2.504124e+00 1.050610e-02 0
2.501722e+00 1.242423e-02 0
2.498884e+00 1.464077e-02 0
2.495544e+00 1.720698e-02 0
2.491623e+00 2.018494e-02 0
2.487025e+00 2.364854e-02 0
2.481627e+00 2.768260e-02 0
2.475269e+00 3.237676e-02 0
2.467727e+00 3.780644e-02 0
2.458675e+00 4.398337e-02 0
2.447626e+00 5.073888e-02 0
2.433879e+00 5.747526e-02 0
2.416628e+00 6.273332e-02 0
2.395742e+00 6.383928e-02 0
2.374428e+00 5.836907e-02 0
2.359218e+00 4.800283e-02 0
2.349763e+00 3.680599e-02 0
2.344141e+00 2.697340e-02 0
2.340810e+00 1.911006e-02 0
2.338822e+00 1.309681e-02 0
2.337635e+00 8.595173e-03 0
2.336939e+00 5.256293e-03 0
2.336539e+00 2.789715e-03 0
2.336302e+00 9.805228e-04 0
2.336121e+00 -3.378214e-04 0
2.335932e+00 -1.281658e-03 0
2.335712e+00 -1.919309e-03 0
2.335456e+00 -2.306892e-03 0
2.335162e+00 -2.491685e-03 0
2.334832e+00 -2.513699e-03 0
2.334468e+00 -2.406714e-03 0
2.334072e+00 -2.199106e-03 0
2.333645e+00 -1.914536e-03 0
2.333189e+00 -1.572552e-03 0
2.332702e+00 -1.189230e-03 0
2.332185e+00 -7.785089e-04 0
2.331641e+00 -3.559696e-04 0
2.331073e+00 5.754705e-05 0
2.330480e+00 4.545148e-04 0
2.329851e+00 8.375923e-04 0
2.329170e+00 1.201041e-03 0
2.328431e+00 1.540755e-03 0
2.327634e+00 1.856653e-03 0
2.326777e+00 2.149930e-03 0
2.325860e+00 2.423035e-03 0
2.324885e+00 2.678336e-03 0
2.323854e+00 2.917750e-03 0
2.322770e+00 3.142774e-03 0
2.321636e+00 3.354602e-03 0
2.320454e+00 3.554217e-03 0
2.319227e+00 3.742442e-03 0
2.317956e+00 3.919982e-03 0
2.316644e+00 4.087450e-03 0
2.315294e+00 4.245392e-03 0
2.313906e+00 4.394317e-03 0
2.312484e+00 4.534710e-03 0
2.311028e+00 4.667035e-03 0
2.309541e+00 4.791728e-03 0
2.308024e+00 4.909188e-03 0
2.306479e+00 5.019780e-03 0
2.304906e+00 5.123841e-03 0
2.303309e+00 5.221694e-03 0
2.301687e+00 5.313654e-03 0
2.300042e+00 5.400025e-03 0
2.298375e+00 5.481098e-03 0
2.296688e+00 5.557138e-03 0
2.294982e+00 5.628389e-03 0
2.293257e+00 5.695078e-03 0
2.291514e+00 5.757424e-03 0
2.289755e+00 5.815639e-03 0
2.287980e+00 5.869932e-03 0
2.286190e+00 5.920499e-03 0
2.284386e+00 5.967516e-03 0
2.282569e+00 6.011143e-03 0
2.280740e+00 6.051529e-03 0
2.278898e+00 6.088819e-03 0
2.277045e+00 6.123156e-03 0
2.275182e+00 6.154683e-03 0
2.273308e+00 6.183533e-03 0
2.271426e+00 6.209827e-03 0
2.269534e+00 6.233674e-03 0
2.267634e+00 6.255174e-03 0
2.265726e+00 6.274426e-03 0
2.263811e+00 6.291525e-03 0
2.261889e+00 6.306564e-03 0
2.259961e+00 6.319630e-03 0
2.258026e+00 6.330800e-03 0
2.256087e+00 6.340147e-03 0
2.254141e+00 6.347738e-03 0
2.252192e+00 6.353638e-03 0
2.250237e+00 6.357905e-03 0
2.248279e+00 6.360596e-03 0
2.246317e+00 6.361764e-03 0
2.244351e+00 6.361453e-03 0
2.242383e+00 6.359709e-03 0
2.240412e+00 6.356570e-03 0
2.238438e+00 6.352076e-03 0
2.236462e+00 6.346264e-03 0
2.234484e+00 6.339168e-03 0
2.232505e+00 6.330819e-03 0
2.230525e+00 6.321243e-03 0
2.228544e+00 6.310462e-03 0
2.226561e+00 6.298489e-03 0
2.224579e+00 6.285341e-03 0
2.222596e+00 6.271033e-03 0
2.220614e+00 6.255577e-03 0
2.218632e+00 6.238988e-03 0
2.216650e+00 6.221278e-03 0
2.214669e+00 6.202454e-03 0
2.212690e+00 6.182516e-03 0
2.210712e+00 6.161466e-03 0
2.208736e+00 6.139298e-03 0
2.206761e+00 6.116006e-03 0
2.204789e+00 6.091585e-03 0
2.202820e+00 6.066030e-03 0
2.200853e+00 6.039328e-03 0
2.198889e+00 6.011469e-03 0
2.196929e+00 5.982440e-03 0
2.194972e+00 5.952221e-03 0
2.193019e+00 5.920789e-03 0
2.191071e+00 5.888118e-03 0
2.189127e+00 5.854172e-03 0
2.187188e+00 5.818908e-03 0
2.185254e+00 5.782269e-03 0
2.183325e+00 5.744185e-03 0
2.181403e+00 5.704559e-03 0
2.179486e+00 5.663257e-03 0
2.177577e+00 5.620099e-03 0
2.175674e+00 5.574833e-03 0
2.173779e+00 5.527098e-03 0
2.171891e+00 5.476379e-03 0
2.170012e+00 5.421928e-03 0
2.168142e+00 5.362650e-03 0
2.166282e+00 5.296921e-03 0
2.164431e+00 5.222342e-03 0
2.162590e+00 5.135500e-03 0
2.160757e+00 5.032164e-03 0
2.158927e+00 4.907845e-03 0
2.157089e+00 4.794177e-03 0
2.157089e+00 4.748474e-03 0
2.688939e+00 -3.195984e-04 0
2.688939e+00 -3.101382e-04 0
2.689019e+00 -2.724127e-04 0
2.689094e+00 -1.958973e-04 0
2.689159e+00 -7.764164e-05 0
2.689210e+00 8.602904e-05 0
2.689243e+00 2.998240e-04 0
2.689250e+00 5.699722e-04 0
2.689226e+00 9.039663e-04 0
2.689161e+00 1.310553e-03 0
2.689046e+00 1.799718e-03 0
2.688869e+00 2.382750e-03 0
2.688618e+00 3.072292e-03 0
2.688278e+00 3.882466e-03 0
2.687832e+00 4.829097e-03 0
2.687263e+00 5.930012e-03 0
2.686550e+00 7.205584e-03 0
2.685671e+00 8.679406e-03 0
2.684603e+00 1.037915e-02 0
2.683318e+00 1.233783e-02 0
2.681788e+00 1.459526e-02 0
2.679979e+00 1.720019e-02 0
2.677856e+00 2.021290e-02 0
2.675375e+00 2.370860e-02 0
2.672480e+00 2.778191e-02 0
2.669097e+00 3.255255e-02 0
2.665117e+00 3.817241e-02 0
2.660356e+00 4.483063e-02 0
2.654480e+00 5.274443e-02 0
2.646838e+00 6.208653e-02 0
2.636121e+00 7.267953e-02 0
2.619810e+00 8.298070e-02 0
2.594062e+00 8.747529e-02 0
2.563373e+00 7.827397e-02 0
2.549128e+00 5.982325e-02 0
2.544254e+00 4.277400e-02 0
2.543297e+00 2.972446e-02 0
2.543721e+00 2.028093e-02 0
2.544517e+00 1.352884e-02 0
2.545319e+00 8.692245e-03 0
2.546011e+00 5.215000e-03 0
2.546559e+00 2.715055e-03 0
2.546953e+00 9.293369e-04 0
2.547208e+00 -3.294130e-04 0
2.547327e+00 -1.192633e-03 0
2.547324e+00 -1.749059e-03 0
2.547216e+00 -2.062972e-03 0
2.547019e+00 -2.183945e-03 0
2.546748e+00 -2.151696e-03 0
2.546418e+00 -1.998728e-03 0
2.546036e+00 -1.751911e-03 0
2.545614e+00 -1.433477e-03 0
2.545156e+00 -1.061548e-03 0
2.544669e+00 -6.498742e-04 0
2.544154e+00 -2.148526e-04 0
2.543616e+00 2.268340e-04 0
2.543053e+00 6.691828e-04 0
2.542455e+00 1.107404e-03 0
2.541822e+00 1.533786e-03 0
2.541153e+00 1.942929e-03 0
2.540444e+00 2.331404e-03 0
2.539695e+00 2.697994e-03 0
2.538903e+00 3.042890e-03 0
2.538069e+00 3.367218e-03 0
2.537194e+00 3.672420e-03 0
2.536277e+00 3.959913e-03 0
2.535322e+00 4.230982e-03 0
2.534328e+00 4.486760e-03 0
2.533300e+00 4.728242e-03 0
2.532237e+00 4.956304e-03 0
2.531141e+00 5.171717e-03 0
2.530015e+00 5.375170e-03 0