<?xml version="1.0"?>
<VTKFile type="StructuredGrid">
<StructuredGrid WholeExtent="0 158 0 30 0 0 ">
<Piece Extent="0 158 0 30 0 0 ">
<Points>
<DataArray type="Float64" format="ascii" NumberOfComponents="3">
0.000000e+00 0.000000e+00 0.000000e+00
3.164557e-02 0.000000e+00 0.000000e+00
6.329114e-02 0.000000e+00 0.000000e+00
9.493671e-02 0.000000e+00 0.000000e+00
1.265823e-01 0.000000e+00 0.000000e+00
1.582278e-01 0.000000e+00 0.000000e+00
1.898734e-01 0.000000e+00 0.000000e+00
2.215190e-01 0.000000e+00 0.000000e+00
2.531646e-01 0.000000e+00 0.000000e+00
2.848101e-01 0.000000e+00 0.000000e+00
3.164557e-01 0.000000e+00 0.000000e+00
3.481013e-01 0.000000e+00 0.000000e+00
3.797468e-01 0.000000e+00 0.000000e+00
4.113924e-01 0.000000e+00 0.000000e+00
4.430380e-01 0.000000e+00 0.000000e+00
4.746835e-01 0.000000e+00 0.000000e+00
5.063291e-01 0.000000e+00 0.000000e+00
5.379747e-01 0.000000e+00 0.000000e+00
5.696203e-01 0.000000e+00 0.000000e+00
6.012658e-01 0.000000e+00 0.000000e+00
6.329114e-01 0.000000e+00 0.000000e+00
6.645570e-01 0.000000e+00 0.000000e+00
6.962025e-01 0.000000e+00 0.000000e+00
7.278481e-01 0.000000e+00 0.000000e+00
7.594937e-01 0.000000e+00 0.000000e+00
7.911392e-01 0.000000e+00 0.000000e+00
8.227848e-01 0.000000e+00 0.000000e+00
8.544304e-01 0.000000e+00 0.000000e+00
8.860759e-01 0.000000e+00 0.000000e+00
9.177215e-01 0.000000e+00 0.000000e+00
9.493671e-01 0.000000e+00 0.000000e+00
9.810127e-01 0.000000e+00 0.000000e+00
1.012658e+00 0.000000e+00 0.000000e+00
1.044304e+00 0.000000e+00 0.000000e+00
1.075949e+00 0.000000e+00 0.000000e+00
1.107595e+00 0.000000e+00 0.000000e+00
1.139241e+00 0.000000e+00 0.000000e+00
1.170886e+00 0.000000e+00 0.000000e+00
1.202532e+00 0.000000e+00 0.000000e+00
1.234177e+00 0.000000e+00 0.000000e+00
1.265823e+00 0.000000e+00 0.000000e+00
1.297468e+00 0.000000e+00 0.000000e+00
1.329114e+00 0.000000e+00 0.000000e+00
1.360759e+00 0.000000e+00 0.000000e+00
1.392405e+00 0.000000e+00 0.000000e+00
1.424051e+00 0.000000e+00 0.000000e+00
1.455696e+00 0.000000e+00 0.000000e+00
1.487342e+00 0.000000e+00 0.000000e+00
1.518987e+00 0.000000e+00 0.000000e+00
1.550633e+00 0.000000e+00 0.000000e+00
1.582278e+00 0.000000e+00 0.000000e+00
1.613924e+00 0.000000e+00 0.000000e+00
1.645570e+00 0.000000e+00 0.000000e+00
1.677215e+00 0.000000e+00 0.000000e+00
1.708861e+00 0.000000e+00 0.000000e+00
1.740506e+00 0.000000e+00 0.000000e+00
1.772152e+00 0.000000e+00 0.000000e+00
1.803797e+00 0.000000e+00 0.000000e+00
1.835443e+00 0.000000e+00 0.000000e+00
1.867089e+00 0.000000e+00 0.000000e+00
1.898734e+00 0.000000e+00 0.000000e+00
1.930380e+00 0.000000e+00 0.000000e+00
1.962025e+00 0.000000e+00 0.000000e+00
1.993671e+00 0.000000e+00 0.000000e+00
2.025316e+00 0.000000e+00 0.000000e+00
2.056962e+00 0.000000e+00 0.000000e+00
2.088608e+00 0.000000e+00 0.000000e+00
2.120253e+00 0.000000e+00 0.000000e+00
2.151899e+00 0.000000e+00 0.000000e+00
2.183544e+00 0.000000e+00 0.000000e+00
2.215190e+00 0.000000e+00 0.000000e+00
2.246835e+00 0.000000e+00 0.000000e+00
2.278481e+00 0.000000e+00 0.000000e+00
2.310127e+00 0.000000e+00 0.000000e+00
2.341772e+00 0.000000e+00 0.000000e+00
2.373418e+00 0.000000e+00 0.000000e+00
2.405063e+00 0.000000e+00 0.000000e+00
2.436709e+00 0.000000e+00 0.000000e+00
2.468354e+00 0.000000e+00 0.000000e+00
2.500000e+00 0.000000e+00 0.000000e+00
2.531646e+00 0.000000e+00 0.000000e+00
2.563291e+00 0.000000e+00 0.000000e+00
2.594937e+00 0.000000e+00 0.000000e+00
2.626582e+00 0.000000e+00 0.000000e+00
2.658228e+00 0.000000e+00 0.000000e+00
2.689873e+00 0.000000e+00 0.000000e+00
2.721519e+00 0.000000e+00 0.000000e+00
2.753165e+00 0.000000e+00 0.000000e+00
2.784810e+00 0.000000e+00 0.000000e+00
2.816456e+00 0.000000e+00 0.000000e+00
2.848101e+00 0.000000e+00 0.000000e+00
2.879747e+00 0.000000e+00 0.000000e+00
2.911392e+00 0.000000e+00 0.000000e+00
2.943038e+00 0.000000e+00 0.000000e+00
2.974684e+00 0.000000e+00 0.000000e+00
3.006329e+00 0.000000e+00 0.000000e+00
3.037975e+00 0.000000e+00 0.000000e+00
3.069620e+00 0.000000e+00 0.000000e+00
3.101266e+00 0.000000e+00 0.000000e+00
3.132911e+00 0.000000e+00 0.000000e+00
3.164557e+00 0.000000e+00 0.000000e+00
3.196203e+00 0.000000e+00 0.000000e+00
3.227848e+00 0.000000e+00 0.000000e+00
3.259494e+00 0.000000e+00 0.000000e+00
3.291139e+00 0.000000e+00 0.000000e+00
3.322785e+00 0.000000e+00 0.000000e+00
3.354430e+00 0.000000e+00 0.000000e+00
3.386076e+00 0.000000e+00 0.000000e+00
3.417722e+00 0.000000e+00 0.000000e+00
3.449367e+00 0.000000e+00 0.000000e+00
3.481013e+00 0.000000e+00 0.000000e+00
3.512658e+00 0.000000e+00 0.000000e+00
3.544304e+00 0.000000e+00 0.000000e+00
3.575949e+00 0.000000e+00 0.000000e+00
3.607595e+00 0.000000e+00 0.000000e+00
3.639241e+00 0.000000e+00 0.000000e+00
3.670886e+00 0.000000e+00 0.000000e+00
3.702532e+00 0.000000e+00 0.000000e+00
3.734177e+00 0.000000e+00 0.000000e+00
3.765823e+00 0.000000e+00 0.000000e+00
3.797468e+00 0.000000e+00 0.000000e+00
3.829114e+00 0.000000e+00 0.000000e+00
3.860759e+00 0.000000e+00 0.000000e+00
3.892405e+00 0.000000e+00 0.000000e+00
3.924051e+00 0.000000e+00 0.000000e+00
3.955696e+00 0.000000e+00 0.000000e+00
3.987342e+00 0.000000e+00 0.000000e+00
4.018987e+00 0.000000e+00 0.000000e+00
4.050633e+00 0.000000e+00 0.000000e+00
4.082278e+00 0.000000e+00 0.000000e+00
4.113924e+00 0.000000e+00 0.000000e+00
4.145570e+00 0.000000e+00 0.000000e+00
4.177215e+00 0.000000e+00 0.000000e+00
4.208861e+00 0.000000e+00 0.000000e+00
4.240506e+00 0.000000e+00 0.000000e+00
4.272152e+00 0.000000e+00 0.000000e+00
4.303797e+00 0.000000e+00 0.000000e+00
4.335443e+00 0.000000e+00 0.000000e+00
4.367089e+00 0.000000e+00 0.000000e+00
4.398734e+00 0.000000e+00 0.000000e+00
4.430380e+00 0.000000e+00 0.000000e+00
4.462025e+00 0.000000e+00 0.000000e+00
4.493671e+00 0.000000e+00 0.000000e+00
4.525316e+00 0.000000e+00 0.000000e+00
4.556962e+00 0.000000e+00 0.000000e+00
4.588608e+00 0.000000e+00 0.000000e+00
4.620253e+00 0.000000e+00 0.000000e+00
4.651899e+00 0.000000e+00 0.000000e+00
4.683544e+00 0.000000e+00 0.000000e+00
4.715190e+00 0.000000e+00 0.000000e+00
4.746835e+00 0.000000e+00 0.000000e+00
4.778481e+00 0.000000e+00 0.000000e+00
4.810127e+00 0.000000e+00 0.000000e+00
4.841772e+00 0.000000e+00 0.000000e+00
4.873418e+00 0.000000e+00 0.000000e+00
4.905063e+00 0.000000e+00 0.000000e+00
4.936709e+00 0.000000e+00 0.000000e+00
4.968354e+00 0.000000e+00 0.000000e+00
5.000000e+00 0.000000e+00 0.000000e+00
0.000000e+00 3.333333e-02 0.000000e+00
3.164557e-02 3.333333e-02 0.000000e+00
6.329114e-02 3.333333e-02 0.000000e+00
9.493671e-02 3.333333e-02 0.000000e+00
1.265823e-01 3.333333e-02 0.000000e+00
1.582278e-01 3.333333e-02 0.000000e+00
1.898734e-01 3.333333e-02 0.000000e+00
2.215190e-01 3.333333e-02 0.000000e+00
2.531646e-01 3.333333e-02 0.000000e+00
2.848101e-01 3.333333e-02 0.000000e+00
3.164557e-01 3.333333e-02 0.000000e+00
3.481013e-01 3.333333e-02 0.000000e+00
3.797468e-01 3.333333e-02 0.000000e+00
4.113924e-01 3.333333e-02 0.000000e+00
4.430380e-01 3.333333e-02 0.000000e+00
4.746835e-01 3.333333e-02 0.000000e+00
5.063291e-01 3.333333e-02 0.000000e+00
5.379747e-01 3.333333e-02 0.000000e+00
5.696203e-01 3.333333e-02 0.000000e+00
6.012658e-01 3.333333e-02 0.000000e+00
6.329114e-01 3.333333e-02 0.000000e+00
6.645570e-01 3.333333e-02 0.000000e+00
6.962025e-01 3.333333e-02 0.000000e+00
7.278481e-01 3.333333e-02 0.000000e+00
7.594937e-01 3.333333e-02 0.000000e+00
7.911392e-01 3.333333e-02 0.000000e+00
8.227848e-01 3.333333e-02 0.000000e+00
8.544304e-01 3.333333e-02 0.000000e+00
8.860759e-01 3.333333e-02 0.000000e+00
9.177215e-01 3.333333e-02 0.000000e+00
9.493671e-01 3.333333e-02 0.000000e+00
9.810127e-01 3.333333e-02 0.000000e+00
1.012658e+00 3.333333e-02 0.000000e+00
1.044304e+00 3.333333e-02 0.000000e+00
1.075949e+00 3.333333e-02 0.000000e+00
1.107595e+00 3.333333e-02 0.000000e+00
1.139241e+00 3.333333e-02 0.000000e+00
1.170886e+00 3.333333e-02 0.000000e+00
1.202532e+00 3.333333e-02 0.000000e+00
1.234177e+00 3.333333e-02 0.000000e+00
1.265823e+00 3.333333e-02 0.000000e+00
1.297468e+00 3.333333e-02 0.000000e+00
1.329114e+00 3.333333e-02 0.000000e+00
1.360759e+00 3.333333e-02 0.000000e+00
1.392405e+00 3.333333e-02 0.000000e+00
1.424051e+00 3.333333e-02 0.000000e+00
1.455696e+00 3.333333e-02 0.000000e+00
1.487342e+00 3.333333e-02 0.000000e+00
1.518987e+00 3.333333e-02 0.000000e+00
1.550633e+00 3.333333e-02 0.000000e+00
1.582278e+00 3.333333e-02 0.000000e+00
1.613924e+00 3.333333e-02 0.000000e+00
1.645570e+00 3.333333e-02 0.000000e+00
1.677215e+00 3.333333e-02 0.000000e+00
1.708861e+00 3.333333e-02 0.000000e+00
1.740506e+00 3.333333e-02 0.000000e+00
1.772152e+00 3.333333e-02 0.000000e+00
1.803797e+00 3.333333e-02 0.000000e+00
1.835443e+00 3.333333e-02 0.000000e+00
1.867089e+00 3.333333e-02 0.000000e+00
1.898734e+00 3.333333e-02 0.000000e+00
1.930380e+00 3.333333e-02 0.000000e+00
1.962025e+00 3.333333e-02 0.000000e+00
1.993671e+00 3.333333e-02 0.000000e+00
2.025316e+00 3.333333e-02 0.000000e+00
2.056962e+00 3.333333e-02 0.000000e+00
2.088608e+00 3.333333e-02 0.000000e+00
2.120253e+00 3.333333e-02 0.000000e+00
2.151899e+00 3.333333e-02 0.000000e+00
2.183544e+00 3.333333e-02 0.000000e+00
2.215190e+00 3.333333e-02 0.000000e+00
2.246835e+00 3.333333e-02 0.000000e+00
2.278481e+00 3.333333e-02 0.000000e+00
2.310127e+00 3.333333e-02 0.000000e+00
2.341772e+00 3.333333e-02 0.000000e+00
2.373418e+00 3.333333e-02 0.000000e+00
2.405063e+00 3.333333e-02 0.000000e+00
2.436709e+00 3.333333e-02 0.000000e+00
2.468354e+00 3.333333e-02 0.000000e+00
2.500000e+00 3.333333e-02 0.000000e+00
2.531646e+00 3.333333e-02 0.000000e+00
2.563291e+00 3.333333e-02 0.000000e+00
2.594937e+00 3.333333e-02 0.000000e+00
2.626582e+00 3.333333e-02 0.000000e+00
2.658228e+00 3.333333e-02 0.000000e+00
2.689873e+00 3.333333e-02 0.000000e+00
2.721519e+00 3.333333e-02 0.000000e+00
2.753165e+00 3.333333e-02 0.000000e+00
2.784810e+00 3.333333e-02 0.000000e+00
2.816456e+00 3.333333e-02 0.000000e+00
2.848101e+00 3.333333e-02 0.000000e+00
2.879747e+00 3.333333e-02 0.000000e+00
[...]
<PointData>
<DataArray Name="Velocity" type="Float64" format="ascii" NumberOfComponents="3">
0.000000e+00 0.000000e+00 0
0.000000e+00 0.000000e+00 0
0.000000e+00 0.000000e+00 0
0.000000e+00 0.000000e+00 0
0.000000e+00 0.000000e+00 0
0.000000e+00 0.000000e+00 0
0.000000e+00 0.000000e+00 0
0.000000e+00 0.000000e+00 0
0.000000e+00 0.000000e+00 0
0.000000e+00 0.000000e+00 0
0.000000e+00 0.000000e+00 0
0.000000e+00 0.000000e+00 0
0.000000e+00 0.000000e+00 0
0.000000e+00 0.000000e+00 0
0.000000e+00 0.000000e+00 0
0.000000e+00 0.000000e+00 0
0.000000e+00 0.000000e+00 0
0.000000e+00 0.000000e+00 0
0.000000e+00 0.000000e+00 0
-1.574882e-17 0.000000e+00 0
0.000000e+00 0.000000e+00 0
0.000000e+00 0.000000e+00 0
0.000000e+00 0.000000e+00 0
1.933545e-19 0.000000e+00 0
0.000000e+00 0.000000e+00 0
0.000000e+00 0.000000e+00 0
0.000000e+00 0.000000e+00 0
-1.759191e-17 0.000000e+00 0
0.000000e+00 0.000000e+00 0
0.000000e+00 0.000000e+00 0
0.000000e+00 0.000000e+00 0
-2.617743e-17 0.000000e+00 0
0.000000e+00 0.000000e+00 0
0.000000e+00 0.000000e+00 0
0.000000e+00 0.000000e+00 0
0.000000e+00 0.000000e+00 0
0.000000e+00 0.000000e+00 0
0.000000e+00 0.000000e+00 0
1.367709e-17 0.000000e+00 0
0.000000e+00 0.000000e+00 0
0.000000e+00 0.000000e+00 0
0.000000e+00 0.000000e+00 0
0.000000e+00 0.000000e+00 0
0.000000e+00 0.000000e+00 0
0.000000e+00 0.000000e+00 0
0.000000e+00 0.000000e+00 0
2.696074e-17 0.000000e+00 0
0.000000e+00 0.000000e+00 0
0.000000e+00 0.000000e+00 0
0.000000e+00 0.000000e+00 0
0.000000e+00 0.000000e+00 0
0.000000e+00 0.000000e+00 0
0.000000e+00 0.000000e+00 0
0.000000e+00 0.000000e+00 0
2.553048e-17 0.000000e+00 0
0.000000e+00 0.000000e+00 0
0.000000e+00 0.000000e+00 0
0.000000e+00 0.000000e+00 0
0.000000e+00 0.000000e+00 0
0.000000e+00 0.000000e+00 0
0.000000e+00 0.000000e+00 0
0.000000e+00 0.000000e+00 0
-2.373444e-17 0.000000e+00 0
0.000000e+00 0.000000e+00 0
0.000000e+00 0.000000e+00 0
0.000000e+00 0.000000e+00 0
0.000000e+00 0.000000e+00 0
0.000000e+00 0.000000e+00 0
0.000000e+00 0.000000e+00 0
0.000000e+00 0.000000e+00 0
0.000000e+00 0.000000e+00 0
0.000000e+00 0.000000e+00 0
0.000000e+00 0.000000e+00 0
0.000000e+00 0.000000e+00 0
0.000000e+00 0.000000e+00 0
0.000000e+00 0.000000e+00 0
0.000000e+00 0.000000e+00 0
0.000000e+00 0.000000e+00 0
0.000000e+00 0.000000e+00 0
0.000000e+00 0.000000e+00 0
0.000000e+00 0.000000e+00 0
0.000000e+00 0.000000e+00 0
0.000000e+00 0.000000e+00 0
0.000000e+00 0.000000e+00 0
0.000000e+00 0.000000e+00 0
0.000000e+00 0.000000e+00 0
0.000000e+00 0.000000e+00 0
0.000000e+00 0.000000e+00 0
0.000000e+00 0.000000e+00 0
0.000000e+00 0.000000e+00 0
0.000000e+00 0.000000e+00 0
0.000000e+00 0.000000e+00 0
0.000000e+00 0.000000e+00 0
0.000000e+00 0.000000e+00 0
0.000000e+00 0.000000e+00 0
0.000000e+00 0.000000e+00 0
0.000000e+00 0.000000e+00 0
0.000000e+00 0.000000e+00 0
0.000000e+00 0.000000e+00 0
0.000000e+00 0.000000e+00 0
0.000000e+00 0.000000e+00 0
0.000000e+00 0.000000e+00 0
0.000000e+00 0.000000e+00 0
0.000000e+00 0.000000e+00 0
0.000000e+00 0.000000e+00 0
0.000000e+00 0.000000e+00 0
0.000000e+00 0.000000e+00 0
0.000000e+00 0.000000e+00 0
0.000000e+00 0.000000e+00 0
0.000000e+00 0.000000e+00 0
0.000000e+00 0.000000e+00 0
0.000000e+00 0.000000e+00 0
0.000000e+00 0.000000e+00 0
0.000000e+00 0.000000e+00 0
0.000000e+00 0.000000e+00 0
0.000000e+00 0.000000e+00 0
0.000000e+00 0.000000e+00 0
0.000000e+00 0.000000e+00 0
0.000000e+00 0.000000e+00 0
0.000000e+00 0.000000e+00 0
0.000000e+00 0.000000e+00 0
0.000000e+00 0.000000e+00 0
0.000000e+00 0.000000e+00 0
0.000000e+00 0.000000e+00 0
0.000000e+00 0.000000e+00 0
0.000000e+00 0.000000e+00 0
0.000000e+00 0.000000e+00 0
0.000000e+00 0.000000e+00 0
0.000000e+00 0.000000e+00 0
0.000000e+00 0.000000e+00 0
0.000000e+00 0.000000e+00 0
0.000000e+00 0.000000e+00 0
0.000000e+00 0.000000e+00 0
0.000000e+00 0.000000e+00 0
0.000000e+00 0.000000e+00 0
0.000000e+00 0.000000e+00 0
0.000000e+00 0.000000e+00 0
0.000000e+00 0.000000e+00 0
0.000000e+00 0.000000e+00 0
0.000000e+00 0.000000e+00 0
0.000000e+00 0.000000e+00 0
0.000000e+00 0.000000e+00 0
0.000000e+00 0.000000e+00 0
0.000000e+00 0.000000e+00 0
0.000000e+00 0.000000e+00 0
0.000000e+00 0.000000e+00 0
0.000000e+00 0.000000e+00 0
0.000000e+00 0.000000e+00 0
0.000000e+00 0.000000e+00 0
0.000000e+00 0.000000e+00 0
0.000000e+00 0.000000e+00 0
0.000000e+00 0.000000e+00 0
0.000000e+00 0.000000e+00 0
0.000000e+00 0.000000e+00 0
0.000000e+00 0.000000e+00 0
0.000000e+00 0.000000e+00 0
0.000000e+00 0.000000e+00 0
0.000000e+00 0.000000e+00 0
0.000000e+00 0.000000e+00 0
1.552008e+00 -6.650226e-05 0
1.552008e+00 -7.173260e-05 0
1.552068e+00 -6.777563e-05 0
1.552112e+00 -3.998414e-05 0
1.552127e+00 6.125756e-07 0
1.552102e+00 5.066395e-05 0
1.552024e+00 1.142430e-04 0
1.551878e+00 1.938649e-04 0
1.551648e+00 2.917816e-04 0
1.551315e+00 4.104296e-04 0
1.550860e+00 5.525480e-04 0
1.550257e+00 7.211374e-04 0
1.549480e+00 9.196312e-04 0
1.548499e+00 1.152025e-03 0
1.547279e+00 1.422791e-03 0
1.545782e+00 1.737022e-03 0
1.543964e+00 2.100589e-03 0
1.541775e+00 2.520235e-03 0
1.539158e+00 3.003874e-03 0
1.536047e+00 3.560936e-03 0
1.532369e+00 4.202835e-03 0
1.528035e+00 4.943264e-03 0
1.522946e+00 5.798516e-03 0
1.516982e+00 6.787703e-03 0
1.510007e+00 7.932145e-03 0
1.501858e+00 9.253382e-03 0
1.492356e+00 1.076840e-02 0
1.481300e+00 1.247876e-02 0
1.468497e+00 1.434939e-02 0
1.453799e+00 1.627227e-02 0
1.437204e+00 1.801614e-02 0
1.419007e+00 1.918908e-02 0
1.400018e+00 1.929717e-02 0
1.381645e+00 1.802190e-02 0
1.365446e+00 1.557977e-02 0
1.352220e+00 1.259113e-02 0
1.342022e+00 9.625684e-03 0
1.334496e+00 7.013408e-03 0
1.329148e+00 4.870768e-03 0
1.325502e+00 3.186091e-03 0
1.323152e+00 1.887062e-03 0
1.321783e+00 8.660241e-04 0
1.321164e+00 -6.286042e-05 0
1.321121e+00 -9.006310e-04 0
1.321528e+00 -1.532605e-03 0
1.322262e+00 -1.977749e-03 0
1.323217e+00 -2.260734e-03 0
1.324302e+00 -2.407978e-03 0
1.325443e+00 -2.444700e-03 0
1.326581e+00 -2.393514e-03 0
1.327667e+00 -2.273988e-03 0
1.328665e+00 -2.102696e-03 0
1.329548e+00 -1.893487e-03 0
1.330295e+00 -1.657804e-03 0
1.330893e+00 -1.404992e-03 0
1.331332e+00 -1.142400e-03 0
1.331608e+00 -8.754438e-04 0
1.331724e+00 -6.061829e-04 0
1.331696e+00 -3.466694e-04 0
1.331541e+00 -1.248989e-04 0
1.331271e+00 3.813492e-05 0
1.330897e+00 1.571691e-04 0
1.330429e+00 2.580315e-04 0
1.329874e+00 3.486420e-04 0
1.329240e+00 4.319617e-04 0
1.328532e+00 5.093449e-04 0
1.327754e+00 5.815330e-04 0
1.326911e+00 6.490107e-04 0
1.326007e+00 7.121547e-04 0
1.325046e+00 7.712922e-04 0
1.324030e+00 8.267123e-04 0
1.322964e+00 8.786576e-04 0
1.321851e+00 9.273222e-04 0
1.320693e+00 9.728621e-04 0
1.319493e+00 1.015417e-03 0
1.318254e+00 1.055128e-03 0
1.316978e+00 1.092149e-03 0
1.315668e+00 1.126635e-03 0
1.314326e+00 1.158739e-03 0
1.312954e+00 1.188595e-03 0
1.311553e+00 1.216319e-03 0
1.310127e+00 1.242015e-03 0
1.308676e+00 1.265783e-03 0
1.307202e+00 1.287722e-03 0
1.305708e+00 1.307937e-03 0
1.304194e+00 1.326525e-03 0
1.302662e+00 1.343575e-03 0
1.301113e+00 1.359161e-03 0
1.299549e+00 1.373354e-03 0
1.297971e+00 1.386226e-03 0
1.296380e+00 1.397853e-03 0
1.294777e+00 1.408316e-03 0
1.293163e+00 1.417687e-03 0
1.291539e+00 1.426020e-03 0
1.289907e+00 1.433358e-03 0
1.288266e+00 1.439739e-03 0
1.286618e+00 1.445206e-03 0
1.284964e+00 1.449817e-03 0
1.283304e+00 1.453631e-03 0
1.281639e+00 1.456703e-03 0
1.279970e+00 1.459072e-03 0
1.278298e+00 1.460763e-03 0
1.276622e+00 1.461798e-03 0
1.274944e+00 1.462204e-03 0
1.273264e+00 1.462012e-03 0
1.271583e+00 1.461261e-03 0
1.269901e+00 1.459984e-03 0
1.268219e+00 1.458208e-03 0
1.266537e+00 1.455955e-03 0
1.264856e+00 1.453240e-03 0
1.263175e+00 1.450082e-03 0
1.261496e+00 1.446501e-03 0
1.259819e+00 1.442514e-03 0
1.258144e+00 1.438140e-03 0
1.256471e+00 1.433394e-03 0
1.254801e+00 1.428288e-03 0
1.253135e+00 1.422833e-03 0
1.251472e+00 1.417040e-03 0
1.249813e+00 1.410922e-03 0
1.248158e+00 1.404488e-03 0
1.246507e+00 1.397746e-03 0
1.244861e+00 1.390701e-03 0
1.243220e+00 1.383358e-03 0
1.241585e+00 1.375721e-03 0
1.239955e+00 1.367795e-03 0
1.238331e+00 1.359585e-03 0
1.236713e+00 1.351093e-03 0
1.235102e+00 1.342321e-03 0
1.233497e+00 1.333268e-03 0
1.231899e+00 1.323933e-03 0
1.230309e+00 1.314315e-03 0
1.228726e+00 1.304414e-03 0
1.227151e+00 1.294227e-03 0
1.225583e+00 1.283752e-03 0
1.224025e+00 1.272984e-03 0
1.222475e+00 1.261918e-03 0
1.220934e+00 1.250547e-03 0
1.219402e+00 1.238866e-03 0
1.217880e+00 1.226868e-03 0
1.216367e+00 1.214543e-03 0
1.214865e+00 1.201878e-03 0
1.213374e+00 1.188860e-03 0
1.211893e+00 1.175467e-03 0
1.210424e+00 1.161674e-03 0
1.208966e+00 1.147447e-03 0
1.207521e+00 1.132741e-03 0
1.206088e+00 1.117492e-03 0
1.204668e+00 1.101609e-03 0
1.203263e+00 1.084959e-03 0
1.201872e+00 1.067347e-03 0
1.200497e+00 1.048484e-03 0
1.199139e+00 1.027907e-03 0
1.197800e+00 1.004871e-03 0
1.196483e+00 9.780462e-04 0
1.195191e+00 9.445526e-04 0
1.193932e+00 8.991405e-04 0
1.192715e+00 7.888492e-04 0
1.191559e+00 9.241700e-04 0
1.191559e+00 1.143286e-03 0
2.361598e+00 -1.311164e-04 0
2.361598e+00 -1.289155e-04 0
2.361649e+00 -1.097212e-04 0
2.361687e+00 -6.244850e-05 0
2.361704e+00 1.031003e-05 0
2.361688e+00 1.088073e-04 0
2.361626e+00 2.360948e-04 0
2.361506e+00 3.958370e-04 0
2.361312e+00 5.922756e-04 0
2.361029e+00 8.302697e-04 0
2.360638e+00 1.115234e-03 0
2.360119e+00 1.453319e-03 0
2.359446e+00 1.851574e-03 0
2.358595e+00 2.317893e-03 0
2.357534e+00 2.861213e-03 0
2.356230e+00 3.491743e-03 0
2.354643e+00 4.221137e-03 0
2.352731e+00 5.062943e-03 0
2.350443e+00 6.033132e-03 0
2.347721e+00 7.150805e-03 0
2.344502e+00 8.438894e-03 0
2.340708e+00 9.924953e-03 0
2.336253e+00 1.164207e-02 0
2.331031e+00 1.362920e-02 0
2.324920e+00 1.593057e-02 0
2.317772e+00 1.859265e-02 0
2.309413e+00 2.165537e-02 0
2.299636e+00 2.513203e-02 0
2.288204e+00 2.896763e-02 0
2.274867e+00 3.296147e-02 0
2.259433e+00 3.664656e-02 0
2.241949e+00 3.916775e-02 0
2.223109e+00 3.935491e-02 0
2.204801e+00 3.641668e-02 0
2.189497e+00 3.099453e-02 0
2.177834e+00 2.467328e-02 0
2.169372e+00 1.867031e-02 0
2.163397e+00 1.356094e-02 0
2.159259e+00 9.473516e-03 0
2.156455e+00 6.315832e-03 0
2.154614e+00 3.916584e-03 0
2.153465e+00 2.093603e-03 0
2.152788e+00 6.976076e-04 0
2.152321e+00 -3.826762e-04 0
2.151989e+00 -1.201818e-03 0
2.151742e+00 -1.779353e-03 0
2.151548e+00 -2.148757e-03 0
2.151379e+00 -2.344858e-03 0
2.151218e+00 -2.399828e-03 0
2.151049e+00 -2.341994e-03 0
2.150860e+00 -2.195704e-03 0
2.150641e+00 -1.981585e-03 0
2.150385e+00 -1.716954e-03 0
2.150084e+00 -1.416300e-03 0
2.149735e+00 -1.091822e-03 0
2.149334e+00 -7.537630e-04 0
2.148885e+00 -4.128604e-04 0
2.148396e+00 -9.198660e-05 0
2.147873e+00 1.930444e-04 0
2.147313e+00 4.474313e-04 0
2.146700e+00 6.779493e-04 0
2.146014e+00 8.871181e-04 0
2.145252e+00 1.077144e-03 0
2.144418e+00 1.251916e-03 0
2.143516e+00 1.414138e-03 0
2.142548e+00 1.565536e-03 0
2.141521e+00 1.707263e-03 0
2.140435e+00 1.840159e-03 0
2.139296e+00 1.964899e-03 0
2.138105e+00 2.082057e-03 0
2.136866e+00 2.192126e-03 0
2.135582e+00 2.295524e-03 0
2.134255e+00 2.392608e-03 0
2.132888e+00 2.483693e-03 0
2.131483e+00 2.569077e-03 0
2.130042e+00 2.649056e-03 0
2.128567e+00 2.723922e-03 0
2.127061e+00 2.793958e-03 0
2.125525e+00 2.859428e-03 0
2.123960e+00 2.920573e-03 0
2.122370e+00 2.977616e-03 0
2.120754e+00 3.030765e-03 0
2.119116e+00 3.080225e-03 0
2.117455e+00 3.126190e-03 0
2.115775e+00 3.168851e-03 0
2.114075e+00 3.208383e-03 0
2.112357e+00 3.244948e-03 0
2.110623e+00 3.278698e-03 0
2.108873e+00 3.309780e-03 0
2.107108e+00 3.338337e-03 0
2.105330e+00 3.364513e-03 0
2.103540e+00 3.388442e-03 0
2.101737e+00 3.410245e-03 0
2.099924e+00 3.430025e-03 0
2.098101e+00 3.447877e-03 0
2.096268e+00 3.463895e-03 0
2.094426e+00 3.478177e-03 0
2.092577e+00 3.490821e-03 0
2.090721e+00 3.501923e-03 0
2.088857e+00 3.511566e-03 0
2.086988e+00 3.519820e-03 0
2.085113e+00 3.526746e-03 0
2.083234e+00 3.532401e-03 0
2.081349e+00 3.536846e-03 0
2.079461e+00 3.540144e-03 0
2.077569e+00 3.542354e-03 0
2.075674e+00 3.543529e-03 0
2.073777e+00 3.543717e-03 0
2.071877e+00 3.542958e-03 0
2.069975e+00 3.541292e-03 0
2.068072e+00 3.538756e-03 0
2.066167e+00 3.535387e-03 0
2.064262e+00 3.531221e-03 0
2.062356e+00 3.526286e-03 0
2.060450e+00 3.520609e-03 0
2.058544e+00 3.514214e-03 0
2.056639e+00 3.507122e-03 0
2.054734e+00 3.499355e-03 0
2.052830e+00 3.490934e-03 0
2.050928e+00 3.481876e-03 0
2.049027e+00 3.472195e-03 0
2.047128e+00 3.461901e-03 0
2.045231e+00 3.451004e-03 0
2.043337e+00 3.439511e-03 0
2.041445e+00 3.427430e-03 0
2.039555e+00 3.414767e-03 0
2.037669e+00 3.401524e-03 0
2.035787e+00 3.387704e-03 0
2.033908e+00 3.373305e-03 0
2.032033e+00 3.358325e-03 0
2.030162e+00 3.342762e-03 0
2.028295e+00 3.326612e-03 0
2.026433e+00 3.309870e-03 0
2.024576e+00 3.292527e-03 0
2.022724e+00 3.274575e-03 0
2.020878e+00 3.256002e-03 0
2.019037e+00 3.236795e-03 0
2.017203e+00 3.216940e-03 0
2.015375e+00 3.196422e-03 0
2.013553e+00 3.175219e-03 0
2.011739e+00 3.153307e-03 0
2.009931e+00 3.130654e-03 0
2.008132e+00 3.107220e-03 0
2.006340e+00 3.082952e-03 0
2.004557e+00 3.057784e-03 0
2.002782e+00 3.031622e-03 0
2.001017e+00 3.004337e-03 0
1.999261e+00 2.975749e-03 0
1.997516e+00 2.945594e-03 0
1.995782e+00 2.913492e-03 0
1.994059e+00 2.878869e-03 0
1.992350e+00 2.840847e-03 0
1.990654e+00 2.798036e-03 0
1.988975e+00 2.748102e-03 0
1.987315e+00 2.687028e-03 0
1.985674e+00 2.607537e-03 0
1.984055e+00 2.498641e-03 0
1.982413e+00 2.489671e-03 0
1.982413e+00 2.544069e-03 0
2.762557e+00 -1.975635e-04 0
2.762557e+00 -1.908301e-04 0
2.762616e+00 -1.610466e-04 0
2.762666e+00 -9.806798e-05 0
2.762700e+00 -9.725545e-07 0
2.762712e+00 1.324813e-04 0
2.762693e+00 3.061750e-04 0
2.762634e+00 5.247553e-04 0
2.762524e+00 7.939678e-04 0
2.762352e+00 1.120406e-03 0
2.762103e+00 1.511627e-03 0
2.761764e+00 1.976291e-03 0
2.761316e+00 2.524081e-03 0
2.760740e+00 3.165874e-03 0
2.760015e+00 3.913969e-03 0
2.759115e+00 4.782231e-03 0
2.758012e+00 5.786563e-03 0
2.756676e+00 6.945434e-03 0
2.755071e+00 8.280631e-03 0
2.753157e+00 9.818155e-03 0
2.750889e+00 1.158926e-02 0
2.748215e+00 1.363191e-02 0
2.745075e+00 1.599212e-02 0
2.741396e+00 1.872563e-02 0
2.737091e+00 2.189870e-02 0
2.732049e+00 2.558731e-02 0
2.726124e+00 2.987166e-02 0
2.719113e+00 3.481899e-02 0
2.710723e+00 4.043872e-02 0
2.700515e+00 4.657675e-02 0
2.687857e+00 5.268947e-02 0
2.672022e+00 5.745014e-02 0
2.652898e+00 5.842661e-02 0
2.633421e+00 5.342725e-02 0
2.619490e+00 4.398625e-02 0
2.610794e+00 3.379029e-02 0
2.605596e+00 2.483264e-02 0
2.602496e+00 1.766534e-02 0
2.600632e+00 1.218256e-02 0
2.599511e+00 8.078374e-03 0
2.598850e+00 5.036138e-03 0
2.598474e+00 2.789995e-03 0
2.598257e+00 1.142915e-03 0
2.598112e+00 -5.861612e-05 0
2.597970e+00 -9.231330e-04 0
2.597804e+00 -1.513019e-03 0
2.597605e+00 -1.878431e-03 0
2.597373e+00 -2.061413e-03 0
2.597106e+00 -2.097494e-03 0
2.596807e+00 -2.016686e-03 0
2.596478e+00 -1.844284e-03 0
2.596119e+00 -1.601515e-03 0
2.595732e+00 -1.306106e-03 0
2.595316e+00 -9.728766e-04 0
2.594872e+00 -6.146843e-04 0
2.594403e+00 -2.471412e-04 0
2.593912e+00 1.121557e-04 0
2.593398e+00 4.589506e-04 0
2.592847e+00 7.937589e-04 0
2.592249e+00 1.110703e-03 0
2.591599e+00 1.407018e-03 0
2.590896e+00 1.682720e-03 0
2.590140e+00 1.939013e-03 0
2.589331e+00 2.177934e-03 0
2.588470e+00 2.401377e-03 0
2.587561e+00 2.610857e-03 0
2.586605e+00 2.807564e-03 0
2.585605e+00 2.992468e-03 0
2.584564e+00 3.166391e-03 0
2.583483e+00 3.330045e-03 0
2.582364e+00 3.484046e-03 0
2.581210e+00 3.628930e-03 0
2.580023e+00 3.765170e-03 0
2.578804e+00 3.893206e-03 0
2.577556e+00 4.013459e-03 0
2.576279e+00 4.126341e-03 0
2.574975e+00 4.232250e-03 0
2.573647e+00 4.331560e-03 0
2.572295e+00 4.424617e-03 0
2.570920e+00 4.511744e-03 0
2.569524e+00 4.593247e-03 0
2.568109e+00 4.669420e-03 0
2.566674e+00 4.740546e-03 0
2.565222e+00 4.806894e-03 0
2.563754e+00 4.868715e-03 0
2.562270e+00 4.926242e-03 0
2.560771e+00 4.979696e-03 0
2.559258e+00 5.029289e-03 0
2.557732e+00 5.075231e-03 0
2.556194e+00 5.117723e-03 0
2.554645e+00 5.156954e-03 0
2.553085e+00 5.193097e-03 0
2.551514e+00 5.226305e-03 0
2.549935e+00 5.256722e-03 0
2.548346e+00 5.284491e-03 0
2.546749e+00 5.309750e-03 0
2.545145e+00 5.332639e-03 0
2.543533e+00 5.353288e-03 0
2.541915e+00 5.371814e-03 0
2.540290e+00 5.388318e-03 0
2.538659e+00 5.402896e-03 0
2.537024e+00 5.415638e-03 0
2.535383e+00 5.426633e-03 0
2.533737e+00 5.435968e-03 0
2.532087e+00 5.443727e-03 0
2.530434e+00 5.449984e-03 0
2.528777e+00 5.454807e-03 0
2.527116e+00 5.458257e-03 0
2.525453e+00 5.460392e-03 0
2.523787e+00 5.461268e-03 0
2.522119e+00 5.460940e-03 0
2.520448e+00 5.459458e-03 0
2.518776e+00 5.456867e-03 0
2.517102e+00 5.453205e-03 0
2.515427e+00 5.448510e-03 0
2.513751e+00 5.442812e-03 0
2.512074e+00 5.436142e-03 0
2.510396e+00 5.428530e-03 0
2.508718e+00 5.420001e-03 0
2.507040e+00 5.410578e-03 0
2.505362e+00 5.400279e-03 0
2.503683e+00 5.389119e-03 0
2.502006e+00 5.377110e-03 0
2.500329e+00 5.364263e-03 0
2.498653e+00 5.350586e-03 0
2.496978e+00 5.336086e-03 0
2.495304e+00 5.320765e-03 0
2.493631e+00 5.304625e-03 0
2.491960e+00 5.287663e-03 0
2.490291e+00 5.269878e-03 0
2.488624e+00 5.251264e-03 0
2.486959e+00 5.231815e-03 0
2.485297e+00 5.211522e-03 0
2.483637e+00 5.190373e-03 0
2.481981e+00 5.168355e-03 0
2.480327e+00 5.145450e-03 0
2.478676e+00 5.121642e-03 0
2.477030e+00 5.096909e-03 0
2.475386e+00 5.071229e-03 0
2.473747e+00 5.044572e-03 0
2.472112e+00 5.016903e-03 0
2.470482e+00 4.988180e-03 0
2.468856e+00 4.958348e-03 0
2.467236e+00 4.927339e-03 0
2.465621e+00 4.895063e-03 0
2.464011e+00 4.861400e-03 0
2.462407e+00 4.826184e-03 0
2.460810e+00 4.789182e-03 0
2.459219e+00 4.750067e-03 0
2.457635e+00 4.708369e-03 0
2.456058e+00 4.663398e-03 0
2.454489e+00 4.614149e-03 0
2.452929e+00 4.559119e-03 0
2.451377e+00 4.496068e-03 0
2.449833e+00 4.421799e-03 0
2.448295e+00 4.332326e-03 0
2.446758e+00 4.223786e-03 0
2.445210e+00 4.120457e-03 0
2.445210e+00 4.076600e-03 0
2.969760e+00 -2.694408e-04 0
2.969760e+00 -2.603634e-04 0
2.969828e+00 -2.243374e-04 0
2.969891e+00 -1.514722e-04 0
2.969945e+00 -3.908733e-05 0
2.969986e+00 1.161864e-04 0
2.970008e+00 3.187580e-04 0
2.970007e+00 5.744177e-04 0
2.969975e+00 8.899996e-04 0
2.969904e+00 1.273489e-03 0
2.969785e+00 1.734114e-03 0
2.969607e+00 2.282204e-03 0
2.969359e+00 2.929308e-03 0
2.969028e+00 3.688355e-03 0
2.968596e+00 4.573725e-03 0
2.968049e+00 5.601609e-03 0
2.967367e+00 6.790444e-03 0
2.966529e+00 8.161527e-03 0
2.965514e+00 9.739878e-03 0
2.964296e+00 1.155523e-02 0
2.962849e+00 1.364350e-02 0
2.961143e+00 1.604851e-02 0
2.959145e+00 1.882448e-02 0
2.956813e+00 2.203901e-02 0
2.954097e+00 2.577688e-02 0
2.950931e+00 3.014557e-02 0
2.947214e+00 3.528126e-02 0
2.942780e+00 4.135350e-02 0
2.937327e+00 4.855712e-02 0
2.930267e+00 5.704656e-02 0
2.920416e+00 6.665905e-02 0
2.905488e+00 7.599169e-02 0
2.881984e+00 8.001544e-02 0
2.854101e+00 7.160761e-02 0
2.841085e+00 5.482826e-02 0
2.836570e+00 3.930821e-02 0
2.835627e+00 2.741094e-02 0
2.835959e+00 1.878895e-02 0
2.836645e+00 1.261729e-02 0
2.837351e+00 8.192827e-03 0
2.837969e+00 5.009233e-03 0
2.838471e+00 2.718118e-03 0
2.838844e+00 1.079032e-03 0
2.839100e+00 -7.915625e-05 0
2.839239e+00 -8.766854e-04 0
2.839270e+00 -1.395680e-03 0
2.839205e+00 -1.694928e-03 0
2.839060e+00 -1.819367e-03 0
2.838847e+00 -1.804798e-03 0
2.838577e+00 -1.680449e-03 0
2.838261e+00 -1.470506e-03 0
2.837904e+00 -1.195070e-03 0
2.837515e+00 -8.706583e-04 0
2.837096e+00 -5.103210e-04 0
2.836653e+00 -1.299296e-04 0
2.836186e+00 2.567313e-04 0
2.835695e+00 6.448900e-04 0
2.835172e+00 1.029441e-03 0
2.834617e+00 1.403553e-03 0
2.834029e+00 1.762293e-03 0
2.833405e+00 2.102823e-03 0
2.832743e+00 2.424163e-03 0
2.832045e+00 2.726529e-03 0
2.831308e+00 3.010858e-03 0
2.830534e+00 3.278312e-03 0
2.829724e+00 3.530029e-03 0
2.828880e+00 3.767048e-03 0
2.828004e+00 3.990313e-03 0
2.827096e+00 4.200672e-03 0
2.826158e+00 4.398886e-03 0
2.825192e+00 4.585628e-03 0
2.824200e+00 4.761499e-03 0