<?xml version="1.0"?>
<VTKFile type="StructuredGrid">
<StructuredGrid WholeExtent="0 158 0 30 0 0 ">
<Piece Extent="0 158 0 30 0 0 ">
<Points>
<DataArray type="Float64" format="ascii" NumberOfComponents="3">
0.000000e+00 0.000000e+00 0.000000e+00
3.164557e-02 0.000000e+00 0.000000e+00
6.329114e-02 0.000000e+00 0.000000e+00
9.493671e-02 0.000000e+00 0.000000e+00
1.265823e-01 0.000000e+00 0.000000e+00
1.582278e-01 0.000000e+00 0.000000e+00
1.898734e-01 0.000000e+00 0.000000e+00
2.215190e-01 0.000000e+00 0.000000e+00
2.531646e-01 0.000000e+00 0.000000e+00
2.848101e-01 0.000000e+00 0.000000e+00
3.164557e-01 0.000000e+00 0.000000e+00
3.481013e-01 0.000000e+00 0.000000e+00
3.797468e-01 0.000000e+00 0.000000e+00
4.113924e-01 0.000000e+00 0.000000e+00
4.430380e-01 0.000000e+00 0.000000e+00
4.746835e-01 0.000000e+00 0.000000e+00
5.063291e-01 0.000000e+00 0.000000e+00
5.379747e-01 0.000000e+00 0.000000e+00
5.696203e-01 0.000000e+00 0.000000e+00
6.012658e-01 0.000000e+00 0.000000e+00
6.329114e-01 0.000000e+00 0.000000e+00
6.645570e-01 0.000000e+00 0.000000e+00
6.962025e-01 0.000000e+00 0.000000e+00
7.278481e-01 0.000000e+00 0.000000e+00
7.594937e-01 0.000000e+00 0.000000e+00
7.911392e-01 0.000000e+00 0.000000e+00
8.227848e-01 0.000000e+00 0.000000e+00
8.544304e-01 0.000000e+00 0.000000e+00
8.860759e-01 0.000000e+00 0.000000e+00
9.177215e-01 0.000000e+00 0.000000e+00
9.493671e-01 0.000000e+00 0.000000e+00
9.810127e-01 0.000000e+00 0.000000e+00
1.012658e+00 0.000000e+00 0.000000e+00
1.044304e+00 0.000000e+00 0.000000e+00
1.075949e+00 0.000000e+00 0.000000e+00
1.107595e+00 0.000000e+00 0.000000e+00
1.139241e+00 0.000000e+00 0.000000e+00
1.170886e+00 0.000000e+00 0.000000e+00
1.202532e+00 0.000000e+00 0.000000e+00
1.234177e+00 0.000000e+00 0.000000e+00
1.265823e+00 0.000000e+00 0.000000e+00
1.297468e+00 0.000000e+00 0.000000e+00
1.329114e+00 0.000000e+00 0.000000e+00
1.360759e+00 0.000000e+00 0.000000e+00
1.392405e+00 0.000000e+00 0.000000e+00
1.424051e+00 0.000000e+00 0.000000e+00
1.455696e+00 0.000000e+00 0.000000e+00
1.487342e+00 0.000000e+00 0.000000e+00
1.518987e+00 0.000000e+00 0.000000e+00
1.550633e+00 0.000000e+00 0.000000e+00
1.582278e+00 0.000000e+00 0.000000e+00
1.613924e+00 0.000000e+00 0.000000e+00
1.645570e+00 0.000000e+00 0.000000e+00
1.677215e+00 0.000000e+00 0.000000e+00
1.708861e+00 0.000000e+00 0.000000e+00
1.740506e+00 0.000000e+00 0.000000e+00
1.772152e+00 0.000000e+00 0.000000e+00
1.803797e+00 0.000000e+00 0.000000e+00
1.835443e+00 0.000000e+00 0.000000e+00
1.867089e+00 0.000000e+00 0.000000e+00
1.898734e+00 0.000000e+00 0.000000e+00
1.930380e+00 0.000000e+00 0.000000e+00
1.962025e+00 0.000000e+00 0.000000e+00
1.993671e+00 0.000000e+00 0.000000e+00
2.025316e+00 0.000000e+00 0.000000e+00
2.056962e+00 0.000000e+00 0.000000e+00
2.088608e+00 0.000000e+00 0.000000e+00
2.120253e+00 0.000000e+00 0.000000e+00
2.151899e+00 0.000000e+00 0.000000e+00
2.183544e+00 0.000000e+00 0.000000e+00
2.215190e+00 0.000000e+00 0.000000e+00
2.246835e+00 0.000000e+00 0.000000e+00
2.278481e+00 0.000000e+00 0.000000e+00
2.310127e+00 0.000000e+00 0.000000e+00
2.341772e+00 0.000000e+00 0.000000e+00
2.373418e+00 0.000000e+00 0.000000e+00
2.405063e+00 0.000000e+00 0.000000e+00
2.436709e+00 0.000000e+00 0.000000e+00
2.468354e+00 0.000000e+00 0.000000e+00
2.500000e+00 0.000000e+00 0.000000e+00
2.531646e+00 0.000000e+00 0.000000e+00
2.563291e+00 0.000000e+00 0.000000e+00
2.594937e+00 0.000000e+00 0.000000e+00
2.626582e+00 0.000000e+00 0.000000e+00
2.658228e+00 0.000000e+00 0.000000e+00
2.689873e+00 0.000000e+00 0.000000e+00
2.721519e+00 0.000000e+00 0.000000e+00
2.753165e+00 0.000000e+00 0.000000e+00
2.784810e+00 0.000000e+00 0.000000e+00
2.816456e+00 0.000000e+00 0.000000e+00
2.848101e+00 0.000000e+00 0.000000e+00
2.879747e+00 0.000000e+00 0.000000e+00
2.911392e+00 0.000000e+00 0.000000e+00
2.943038e+00 0.000000e+00 0.000000e+00
2.974684e+00 0.000000e+00 0.000000e+00
3.006329e+00 0.000000e+00 0.000000e+00
3.037975e+00 0.000000e+00 0.000000e+00
3.069620e+00 0.000000e+00 0.000000e+00
3.101266e+00 0.000000e+00 0.000000e+00
3.132911e+00 0.000000e+00 0.000000e+00
3.164557e+00 0.000000e+00 0.000000e+00
3.196203e+00 0.000000e+00 0.000000e+00
3.227848e+00 0.000000e+00 0.000000e+00
3.259494e+00 0.000000e+00 0.000000e+00
3.291139e+00 0.000000e+00 0.000000e+00
3.322785e+00 0.000000e+00 0.000000e+00
3.354430e+00 0.000000e+00 0.000000e+00
3.386076e+00 0.000000e+00 0.000000e+00
3.417722e+00 0.000000e+00 0.000000e+00
3.449367e+00 0.000000e+00 0.000000e+00
3.481013e+00 0.000000e+00 0.000000e+00
3.512658e+00 0.000000e+00 0.000000e+00
3.544304e+00 0.000000e+00 0.000000e+00
3.575949e+00 0.000000e+00 0.000000e+00
3.607595e+00 0.000000e+00 0.000000e+00
3.639241e+00 0.000000e+00 0.000000e+00
3.670886e+00 0.000000e+00 0.000000e+00
3.702532e+00 0.000000e+00 0.000000e+00
3.734177e+00 0.000000e+00 0.000000e+00
3.765823e+00 0.000000e+00 0.000000e+00
3.797468e+00 0.000000e+00 0.000000e+00
3.829114e+00 0.000000e+00 0.000000e+00
3.860759e+00 0.000000e+00 0.000000e+00
3.892405e+00 0.000000e+00 0.000000e+00
3.924051e+00 0.000000e+00 0.000000e+00
3.955696e+00 0.000000e+00 0.000000e+00
3.987342e+00 0.000000e+00 0.000000e+00
4.018987e+00 0.000000e+00 0.000000e+00
4.050633e+00 0.000000e+00 0.000000e+00
4.082278e+00 0.000000e+00 0.000000e+00
4.113924e+00 0.000000e+00 0.000000e+00
4.145570e+00 0.000000e+00 0.000000e+00
4.177215e+00 0.000000e+00 0.000000e+00
4.208861e+00 0.000000e+00 0.000000e+00
4.240506e+00 0.000000e+00 0.000000e+00
4.272152e+00 0.000000e+00 0.000000e+00
4.303797e+00 0.000000e+00 0.000000e+00
4.335443e+00 0.000000e+00 0.000000e+00
4.367089e+00 0.000000e+00 0.000000e+00
4.398734e+00 0.000000e+00 0.000000e+00
4.430380e+00 0.000000e+00 0.000000e+00
4.462025e+00 0.000000e+00 0.000000e+00
4.493671e+00 0.000000e+00 0.000000e+00
4.525316e+00 0.000000e+00 0.000000e+00
4.556962e+00 0.000000e+00 0.000000e+00
4.588608e+00 0.000000e+00 0.000000e+00
4.620253e+00 0.000000e+00 0.000000e+00
4.651899e+00 0.000000e+00 0.000000e+00
4.683544e+00 0.000000e+00 0.000000e+00
4.715190e+00 0.000000e+00 0.000000e+00
4.746835e+00 0.000000e+00 0.000000e+00
4.778481e+00 0.000000e+00 0.000000e+00
4.810127e+00 0.000000e+00 0.000000e+00
4.841772e+00 0.000000e+00 0.000000e+00
4.873418e+00 0.000000e+00 0.000000e+00
4.905063e+00 0.000000e+00 0.000000e+00
4.936709e+00 0.000000e+00 0.000000e+00
4.968354e+00 0.000000e+00 0.000000e+00
5.000000e+00 0.000000e+00 0.000000e+00
0.000000e+00 3.333333e-02 0.000000e+00
3.164557e-02 3.333333e-02 0.000000e+00
6.329114e-02 3.333333e-02 0.000000e+00
9.493671e-02 3.333333e-02 0.000000e+00
1.265823e-01 3.333333e-02 0.000000e+00
1.582278e-01 3.333333e-02 0.000000e+00
1.898734e-01 3.333333e-02 0.000000e+00
2.215190e-01 3.333333e-02 0.000000e+00
2.531646e-01 3.333333e-02 0.000000e+00
2.848101e-01 3.333333e-02 0.000000e+00
3.164557e-01 3.333333e-02 0.000000e+00
3.481013e-01 3.333333e-02 0.000000e+00
3.797468e-01 3.333333e-02 0.000000e+00
4.113924e-01 3.333333e-02 0.000000e+00
4.430380e-01 3.333333e-02 0.000000e+00
4.746835e-01 3.333333e-02 0.000000e+00
5.063291e-01 3.333333e-02 0.000000e+00
5.379747e-01 3.333333e-02 0.000000e+00
5.696203e-01 3.333333e-02 0.000000e+00
6.012658e-01 3.333333e-02 0.000000e+00
6.329114e-01 3.333333e-02 0.000000e+00
6.645570e-01 3.333333e-02 0.000000e+00
6.962025e-01 3.333333e-02 0.000000e+00
7.278481e-01 3.333333e-02 0.000000e+00
7.594937e-01 3.333333e-02 0.000000e+00
7.911392e-01 3.333333e-02 0.000000e+00
8.227848e-01 3.333333e-02 0.000000e+00
8.544304e-01 3.333333e-02 0.000000e+00
8.860759e-01 3.333333e-02 0.000000e+00
9.177215e-01 3.333333e-02 0.000000e+00
9.493671e-01 3.333333e-02 0.000000e+00
9.810127e-01 3.333333e-02 0.000000e+00
1.012658e+00 3.333333e-02 0.000000e+00
1.044304e+00 3.333333e-02 0.000000e+00
1.075949e+00 3.333333e-02 0.000000e+00
1.107595e+00 3.333333e-02 0.000000e+00
1.139241e+00 3.333333e-02 0.000000e+00
1.170886e+00 3.333333e-02 0.000000e+00
1.202532e+00 3.333333e-02 0.000000e+00
1.234177e+00 3.333333e-02 0.000000e+00
1.265823e+00 3.333333e-02 0.000000e+00
1.297468e+00 3.333333e-02 0.000000e+00
1.329114e+00 3.333333e-02 0.000000e+00
1.360759e+00 3.333333e-02 0.000000e+00
1.392405e+00 3.333333e-02 0.000000e+00
1.424051e+00 3.333333e-02 0.000000e+00
1.455696e+00 3.333333e-02 0.000000e+00
1.487342e+00 3.333333e-02 0.000000e+00
1.518987e+00 3.333333e-02 0.000000e+00
1.550633e+00 3.333333e-02 0.000000e+00
1.582278e+00 3.333333e-02 0.000000e+00
1.613924e+00 3.333333e-02 0.000000e+00
1.645570e+00 3.333333e-02 0.000000e+00
1.677215e+00 3.333333e-02 0.000000e+00
1.708861e+00 3.333333e-02 0.000000e+00
1.740506e+00 3.333333e-02 0.000000e+00
1.772152e+00 3.333333e-02 0.000000e+00
1.803797e+00 3.333333e-02 0.000000e+00
1.835443e+00 3.333333e-02 0.000000e+00
1.867089e+00 3.333333e-02 0.000000e+00
1.898734e+00 3.333333e-02 0.000000e+00
1.930380e+00 3.333333e-02 0.000000e+00
1.962025e+00 3.333333e-02 0.000000e+00
1.993671e+00 3.333333e-02 0.000000e+00
2.025316e+00 3.333333e-02 0.000000e+00
2.056962e+00 3.333333e-02 0.000000e+00
2.088608e+00 3.333333e-02 0.000000e+00
2.120253e+00 3.333333e-02 0.000000e+00
2.151899e+00 3.333333e-02 0.000000e+00
2.183544e+00 3.333333e-02 0.000000e+00
2.215190e+00 3.333333e-02 0.000000e+00
2.246835e+00 3.333333e-02 0.000000e+00
2.278481e+00 3.333333e-02 0.000000e+00
2.310127e+00 3.333333e-02 0.000000e+00
2.341772e+00 3.333333e-02 0.000000e+00
2.373418e+00 3.333333e-02 0.000000e+00
2.405063e+00 3.333333e-02 0.000000e+00
2.436709e+00 3.333333e-02 0.000000e+00
2.468354e+00 3.333333e-02 0.000000e+00
2.500000e+00 3.333333e-02 0.000000e+00
2.531646e+00 3.333333e-02 0.000000e+00
2.563291e+00 3.333333e-02 0.000000e+00
2.594937e+00 3.333333e-02 0.000000e+00
2.626582e+00 3.333333e-02 0.000000e+00
2.658228e+00 3.333333e-02 0.000000e+00
2.689873e+00 3.333333e-02 0.000000e+00
2.721519e+00 3.333333e-02 0.000000e+00
2.753165e+00 3.333333e-02 0.000000e+00
2.784810e+00 3.333333e-02 0.000000e+00
2.816456e+00 3.333333e-02 0.000000e+00
2.848101e+00 3.333333e-02 0.000000e+00
2.879747e+00 3.333333e-02 0.000000e+00
[...]
<PointData>
<DataArray Name="Velocity" type="Float64" format="ascii" NumberOfComponents="3">
0.000000e+00 0.000000e+00 0
0.000000e+00 0.000000e+00 0
0.000000e+00 0.000000e+00 0
0.000000e+00 0.000000e+00 0
0.000000e+00 0.000000e+00 0
0.000000e+00 0.000000e+00 0
0.000000e+00 0.000000e+00 0
0.000000e+00 0.000000e+00 0
0.000000e+00 0.000000e+00 0
0.000000e+00 0.000000e+00 0
0.000000e+00 0.000000e+00 0
0.000000e+00 0.000000e+00 0
0.000000e+00 0.000000e+00 0
0.000000e+00 0.000000e+00 0
0.000000e+00 0.000000e+00 0
0.000000e+00 0.000000e+00 0
0.000000e+00 0.000000e+00 0
0.000000e+00 0.000000e+00 0
0.000000e+00 0.000000e+00 0
-4.272714e-19 0.000000e+00 0
0.000000e+00 0.000000e+00 0
0.000000e+00 0.000000e+00 0
0.000000e+00 0.000000e+00 0
-2.999567e-17 0.000000e+00 0
0.000000e+00 0.000000e+00 0
0.000000e+00 0.000000e+00 0
0.000000e+00 0.000000e+00 0
2.756521e-17 0.000000e+00 0
0.000000e+00 0.000000e+00 0
0.000000e+00 0.000000e+00 0
0.000000e+00 0.000000e+00 0
5.263091e-17 0.000000e+00 0
0.000000e+00 0.000000e+00 0
0.000000e+00 0.000000e+00 0
0.000000e+00 0.000000e+00 0
0.000000e+00 0.000000e+00 0
0.000000e+00 0.000000e+00 0
0.000000e+00 0.000000e+00 0
2.057878e-17 0.000000e+00 0
0.000000e+00 0.000000e+00 0
0.000000e+00 0.000000e+00 0
0.000000e+00 0.000000e+00 0
0.000000e+00 0.000000e+00 0
0.000000e+00 0.000000e+00 0
0.000000e+00 0.000000e+00 0
0.000000e+00 0.000000e+00 0
1.436622e-17 0.000000e+00 0
0.000000e+00 0.000000e+00 0
0.000000e+00 0.000000e+00 0
0.000000e+00 0.000000e+00 0
0.000000e+00 0.000000e+00 0
0.000000e+00 0.000000e+00 0
0.000000e+00 0.000000e+00 0
0.000000e+00 0.000000e+00 0
3.929228e-17 0.000000e+00 0
0.000000e+00 0.000000e+00 0
0.000000e+00 0.000000e+00 0
0.000000e+00 0.000000e+00 0
0.000000e+00 0.000000e+00 0
0.000000e+00 0.000000e+00 0
0.000000e+00 0.000000e+00 0
0.000000e+00 0.000000e+00 0
3.923698e-17 0.000000e+00 0
0.000000e+00 0.000000e+00 0
0.000000e+00 0.000000e+00 0
0.000000e+00 0.000000e+00 0
0.000000e+00 0.000000e+00 0
0.000000e+00 0.000000e+00 0
0.000000e+00 0.000000e+00 0
0.000000e+00 0.000000e+00 0
0.000000e+00 0.000000e+00 0
0.000000e+00 0.000000e+00 0
0.000000e+00 0.000000e+00 0
0.000000e+00 0.000000e+00 0
0.000000e+00 0.000000e+00 0
0.000000e+00 0.000000e+00 0
0.000000e+00 0.000000e+00 0
0.000000e+00 0.000000e+00 0
0.000000e+00 0.000000e+00 0
0.000000e+00 0.000000e+00 0
0.000000e+00 0.000000e+00 0
0.000000e+00 0.000000e+00 0
0.000000e+00 0.000000e+00 0
0.000000e+00 0.000000e+00 0
0.000000e+00 0.000000e+00 0
0.000000e+00 0.000000e+00 0
0.000000e+00 0.000000e+00 0
0.000000e+00 0.000000e+00 0
0.000000e+00 0.000000e+00 0
0.000000e+00 0.000000e+00 0
0.000000e+00 0.000000e+00 0
0.000000e+00 0.000000e+00 0
0.000000e+00 0.000000e+00 0
0.000000e+00 0.000000e+00 0
0.000000e+00 0.000000e+00 0
0.000000e+00 0.000000e+00 0
0.000000e+00 0.000000e+00 0
0.000000e+00 0.000000e+00 0
0.000000e+00 0.000000e+00 0
0.000000e+00 0.000000e+00 0
0.000000e+00 0.000000e+00 0
0.000000e+00 0.000000e+00 0
0.000000e+00 0.000000e+00 0
0.000000e+00 0.000000e+00 0
0.000000e+00 0.000000e+00 0
0.000000e+00 0.000000e+00 0
0.000000e+00 0.000000e+00 0
0.000000e+00 0.000000e+00 0
0.000000e+00 0.000000e+00 0
0.000000e+00 0.000000e+00 0
0.000000e+00 0.000000e+00 0
0.000000e+00 0.000000e+00 0
0.000000e+00 0.000000e+00 0
0.000000e+00 0.000000e+00 0
0.000000e+00 0.000000e+00 0
0.000000e+00 0.000000e+00 0
0.000000e+00 0.000000e+00 0
0.000000e+00 0.000000e+00 0
0.000000e+00 0.000000e+00 0
0.000000e+00 0.000000e+00 0
0.000000e+00 0.000000e+00 0
0.000000e+00 0.000000e+00 0
0.000000e+00 0.000000e+00 0
0.000000e+00 0.000000e+00 0
0.000000e+00 0.000000e+00 0
0.000000e+00 0.000000e+00 0
0.000000e+00 0.000000e+00 0
0.000000e+00 0.000000e+00 0
0.000000e+00 0.000000e+00 0
0.000000e+00 0.000000e+00 0
0.000000e+00 0.000000e+00 0
0.000000e+00 0.000000e+00 0
0.000000e+00 0.000000e+00 0
0.000000e+00 0.000000e+00 0
0.000000e+00 0.000000e+00 0
0.000000e+00 0.000000e+00 0
0.000000e+00 0.000000e+00 0
0.000000e+00 0.000000e+00 0
0.000000e+00 0.000000e+00 0
0.000000e+00 0.000000e+00 0
0.000000e+00 0.000000e+00 0
0.000000e+00 0.000000e+00 0
0.000000e+00 0.000000e+00 0
0.000000e+00 0.000000e+00 0
0.000000e+00 0.000000e+00 0
0.000000e+00 0.000000e+00 0
0.000000e+00 0.000000e+00 0
0.000000e+00 0.000000e+00 0
0.000000e+00 0.000000e+00 0
0.000000e+00 0.000000e+00 0
0.000000e+00 0.000000e+00 0
0.000000e+00 0.000000e+00 0
0.000000e+00 0.000000e+00 0
0.000000e+00 0.000000e+00 0
0.000000e+00 0.000000e+00 0
0.000000e+00 0.000000e+00 0
0.000000e+00 0.000000e+00 0
0.000000e+00 0.000000e+00 0
0.000000e+00 0.000000e+00 0
1.946864e+00 -2.584867e-05 0
1.946864e+00 -2.657649e-05 0
1.946885e+00 -1.980218e-05 0
1.946893e+00 -6.595140e-07 0
1.946879e+00 2.750738e-05 0
1.946833e+00 6.605951e-05 0
1.946745e+00 1.161888e-04 0
1.946603e+00 1.791161e-04 0
1.946395e+00 2.562252e-04 0
1.946105e+00 3.491425e-04 0
1.945719e+00 4.597632e-04 0
1.945218e+00 5.902571e-04 0
1.944583e+00 7.430784e-04 0
1.943791e+00 9.209353e-04 0
1.942816e+00 1.126838e-03 0
1.941631e+00 1.364178e-03 0
1.940204e+00 1.636829e-03 0
1.938498e+00 1.949333e-03 0
1.936475e+00 2.307057e-03 0
1.934087e+00 2.716377e-03 0
1.931282e+00 3.184910e-03 0
1.928001e+00 3.721730e-03 0
1.924173e+00 4.337607e-03 0
1.919717e+00 5.045158e-03 0
1.914539e+00 5.858546e-03 0
1.908529e+00 6.792358e-03 0
1.901563e+00 7.858307e-03 0
1.893507e+00 9.057851e-03 0
1.884228e+00 1.036781e-02 0
1.873627e+00 1.171496e-02 0
1.861701e+00 1.294020e-02 0
1.848656e+00 1.377050e-02 0
1.835054e+00 1.385803e-02 0
1.821880e+00 1.297616e-02 0
1.810225e+00 1.127479e-02 0
1.800649e+00 9.188114e-03 0
1.793192e+00 7.115067e-03 0
1.787607e+00 5.287062e-03 0
1.783551e+00 3.786762e-03 0
1.780689e+00 2.608365e-03 0
1.778736e+00 1.706739e-03 0
1.777464e+00 1.024842e-03 0
1.776702e+00 5.029714e-04 0
1.776324e+00 3.772043e-05 0
1.776234e+00 -3.803489e-04 0
1.776371e+00 -6.920961e-04 0
1.776671e+00 -9.080969e-04 0
1.777077e+00 -1.041123e-03 0
1.777541e+00 -1.104428e-03 0
1.778024e+00 -1.110576e-03 0
1.778493e+00 -1.070855e-03 0
1.778924e+00 -9.950852e-04 0
1.779296e+00 -8.916313e-04 0
1.779596e+00 -7.674399e-04 0
1.779812e+00 -6.279096e-04 0
1.779937e+00 -4.772651e-04 0
1.779970e+00 -3.180670e-04 0
1.779922e+00 -1.637252e-04 0
1.779800e+00 -3.866542e-05 0
1.779609e+00 5.181539e-05 0
1.779355e+00 1.226762e-04 0
1.779042e+00 1.850809e-04 0
1.778674e+00 2.424489e-04 0
1.778255e+00 2.960342e-04 0
1.777788e+00 3.463951e-04 0
1.777275e+00 3.938333e-04 0
1.776720e+00 4.385449e-04 0
1.776124e+00 4.806794e-04 0
1.775489e+00 5.203647e-04 0
1.774819e+00 5.577169e-04 0
1.774114e+00 5.928413e-04 0
1.773377e+00 6.258327e-04 0
1.772611e+00 6.567762e-04 0
1.771816e+00 6.857515e-04 0
1.770994e+00 7.128383e-04 0
1.770148e+00 7.381210e-04 0
1.769278e+00 7.616882e-04 0
1.768387e+00 7.836282e-04 0
1.767476e+00 8.040236e-04 0
1.766545e+00 8.229482e-04 0
1.765598e+00 8.404681e-04 0
1.764634e+00 8.566467e-04 0
1.763655e+00 8.715481e-04 0
1.762662e+00 8.852382e-04 0
1.761656e+00 8.977820e-04 0
1.760638e+00 9.092410e-04 0
1.759610e+00 9.196716e-04 0
1.758571e+00 9.291249e-04 0
1.757524e+00 9.376489e-04 0
1.756468e+00 9.452904e-04 0
1.755405e+00 9.520958e-04 0
1.754336e+00 9.581109e-04 0
1.753260e+00 9.633806e-04 0
1.752179e+00 9.679462e-04 0
1.751094e+00 9.718445e-04 0
1.750004e+00 9.751079e-04 0
1.748911e+00 9.777660e-04 0
1.747815e+00 9.798485e-04 0
1.746717e+00 9.813875e-04 0
1.745616e+00 9.824167e-04 0
1.744515e+00 9.829680e-04 0
1.743412e+00 9.830681e-04 0
1.742308e+00 9.827379e-04 0
1.741205e+00 9.819943e-04 0
1.740101e+00 9.808545e-04 0
1.738998e+00 9.793380e-04 0
1.737896e+00 9.774673e-04 0
1.736795e+00 9.752646e-04 0
1.735695e+00 9.727489e-04 0
1.734598e+00 9.699352e-04 0
1.733502e+00 9.668354e-04 0
1.732409e+00 9.634599e-04 0
1.731318e+00 9.598193e-04 0
1.730230e+00 9.559250e-04 0
1.729145e+00 9.517885e-04 0
1.728063e+00 9.474208e-04 0
1.726985e+00 9.428321e-04 0
1.725910e+00 9.380309e-04 0
1.724840e+00 9.330245e-04 0
1.723773e+00 9.278192e-04 0
1.722711e+00 9.224205e-04 0
1.721653e+00 9.168337e-04 0
1.720600e+00 9.110641e-04 0
1.719552e+00 9.051167e-04 0
1.718508e+00 8.989960e-04 0
1.717470e+00 8.927056e-04 0
1.716437e+00 8.862486e-04 0
1.715410e+00 8.796276e-04 0
1.714388e+00 8.728448e-04 0
1.713372e+00 8.659023e-04 0
1.712362e+00 8.588018e-04 0
1.711358e+00 8.515447e-04 0
1.710361e+00 8.441317e-04 0
1.709369e+00 8.365628e-04 0
1.708385e+00 8.288377e-04 0
1.707407e+00 8.209554e-04 0
1.706436e+00 8.129151e-04 0
1.705472e+00 8.047157e-04 0
1.704515e+00 7.963555e-04 0
1.703566e+00 7.878321e-04 0
1.702624e+00 7.791417e-04 0
1.701690e+00 7.702788e-04 0
1.700763e+00 7.612354e-04 0
1.699845e+00 7.520001e-04 0
1.698935e+00 7.425557e-04 0
1.698034e+00 7.328778e-04 0
1.697141e+00 7.229301e-04 0
1.696257e+00 7.126588e-04 0
1.695383e+00 7.019838e-04 0
1.694518e+00 6.907833e-04 0
1.693664e+00 6.788669e-04 0
1.692821e+00 6.659330e-04 0
1.691990e+00 6.514730e-04 0
1.691173e+00 6.345716e-04 0
1.690372e+00 6.132387e-04 0
1.689593e+00 5.837407e-04 0
1.688842e+00 5.115910e-04 0
1.688132e+00 5.785188e-04 0
1.688132e+00 7.002219e-04 0
3.121355e+00 -5.159808e-05 0
3.121355e+00 -4.809796e-05 0
3.121374e+00 -3.084815e-05 0
3.121382e+00 6.223982e-06 0
3.121369e+00 6.305495e-05 0
3.121328e+00 1.411183e-04 0
3.121250e+00 2.423668e-04 0
3.121122e+00 3.691888e-04 0
3.120935e+00 5.244278e-04 0
3.120676e+00 7.114202e-04 0
3.120330e+00 9.339991e-04 0
3.119880e+00 1.196512e-03 0
3.119310e+00 1.503811e-03 0
3.118599e+00 1.861306e-03 0
3.117724e+00 2.275060e-03 0
3.116660e+00 2.751914e-03 0
3.115378e+00 3.299728e-03 0
3.113846e+00 3.927655e-03 0
3.112029e+00 4.646440e-03 0
3.109885e+00 5.468856e-03 0
3.107367e+00 6.410156e-03 0
3.104422e+00 7.488609e-03 0
3.100988e+00 8.726105e-03 0
3.096991e+00 1.014847e-02 0
3.092347e+00 1.178523e-02 0
3.086953e+00 1.366751e-02 0
3.080690e+00 1.582231e-02 0
3.073417e+00 1.825885e-02 0
3.064972e+00 2.094009e-02 0
3.055189e+00 2.372897e-02 0
3.043940e+00 2.630352e-02 0
3.031266e+00 2.806904e-02 0
3.017661e+00 2.820465e-02 0
3.004454e+00 2.615340e-02 0
2.993369e+00 2.236309e-02 0
2.984853e+00 1.794072e-02 0
2.978602e+00 1.373702e-02 0
2.974119e+00 1.015513e-02 0
2.970947e+00 7.287128e-03 0
2.968732e+00 5.072367e-03 0
2.967211e+00 3.397156e-03 0
2.966194e+00 2.142459e-03 0
2.965538e+00 1.200549e-03 0
2.965137e+00 4.925144e-04 0
2.964851e+00 -4.978490e-05 0
2.964637e+00 -4.605423e-04 0
2.964468e+00 -7.431787e-04 0
2.964322e+00 -9.158169e-04 0
2.964186e+00 -9.966571e-04 0
2.964047e+00 -1.002467e-03 0
2.963895e+00 -9.480762e-04 0
2.963724e+00 -8.463243e-04 0
2.963528e+00 -7.082340e-04 0
2.963303e+00 -5.432042e-04 0
2.963046e+00 -3.588936e-04 0
2.962762e+00 -1.662757e-04 0
2.962456e+00 1.537475e-05 0
2.962130e+00 1.788034e-04 0
2.961779e+00 3.297440e-04 0
2.961388e+00 4.694064e-04 0
2.960949e+00 5.980783e-04 0
2.960461e+00 7.172204e-04 0
2.959927e+00 8.285781e-04 0
2.959347e+00 9.332768e-04 0
2.958725e+00 1.032005e-03 0
2.958062e+00 1.125212e-03 0
2.957361e+00 1.213222e-03 0
2.956624e+00 1.296300e-03 0
2.955852e+00 1.374673e-03 0
2.955048e+00 1.448550e-03 0
2.954213e+00 1.518122e-03 0
2.953350e+00 1.583566e-03 0
2.952459e+00 1.645050e-03 0
2.951543e+00 1.702736e-03 0
2.950602e+00 1.756787e-03 0
2.949639e+00 1.807369e-03 0
2.948655e+00 1.854647e-03 0
2.947651e+00 1.898781e-03 0
2.946628e+00 1.939921e-03 0
2.945588e+00 1.978207e-03 0
2.944531e+00 2.013771e-03 0
2.943460e+00 2.046742e-03 0
2.942374e+00 2.077249e-03 0
2.941275e+00 2.105418e-03 0
2.940163e+00 2.131370e-03 0
2.939041e+00 2.155219e-03 0
2.937908e+00 2.177069e-03 0
2.936765e+00 2.197022e-03 0
2.935614e+00 2.215172e-03 0
2.934454e+00 2.231612e-03 0
2.933287e+00 2.246433e-03 0
2.932113e+00 2.259721e-03 0
2.930932e+00 2.271557e-03 0
2.929747e+00 2.282020e-03 0
2.928556e+00 2.291178e-03 0
2.927360e+00 2.299096e-03 0
2.926161e+00 2.305836e-03 0
2.924958e+00 2.311460e-03 0
2.923751e+00 2.316028e-03 0
2.922543e+00 2.319600e-03 0
2.921331e+00 2.322232e-03 0
2.920118e+00 2.323970e-03 0
2.918904e+00 2.324856e-03 0
2.917688e+00 2.324928e-03 0
2.916472e+00 2.324225e-03 0
2.915255e+00 2.322788e-03 0
2.914038e+00 2.320656e-03 0
2.912820e+00 2.317867e-03 0
2.911604e+00 2.314453e-03 0
2.910387e+00 2.310440e-03 0
2.909172e+00 2.305854e-03 0
2.907958e+00 2.300717e-03 0
2.906745e+00 2.295053e-03 0
2.905534e+00 2.288884e-03 0
2.904324e+00 2.282231e-03 0
2.903117e+00 2.275115e-03 0
2.901911e+00 2.267552e-03 0
2.900708e+00 2.259559e-03 0
2.899508e+00 2.251149e-03 0
2.898310e+00 2.242334e-03 0
2.897115e+00 2.233126e-03 0
2.895923e+00 2.223535e-03 0
2.894735e+00 2.213572e-03 0
2.893550e+00 2.203246e-03 0
2.892368e+00 2.192563e-03 0
2.891190e+00 2.181532e-03 0
2.890016e+00 2.170157e-03 0
2.888846e+00 2.158444e-03 0
2.887681e+00 2.146395e-03 0
2.886519e+00 2.134015e-03 0
2.885362e+00 2.121306e-03 0
2.884210e+00 2.108271e-03 0
2.883062e+00 2.094910e-03 0
2.881919e+00 2.081222e-03 0
2.880782e+00 2.067207e-03 0
2.879649e+00 2.052862e-03 0
2.878522e+00 2.038187e-03 0
2.877401e+00 2.023178e-03 0
2.876285e+00 2.007831e-03 0
2.875175e+00 1.992141e-03 0
2.874071e+00 1.976100e-03 0
2.872973e+00 1.959695e-03 0
2.871882e+00 1.942912e-03 0
2.870797e+00 1.925726e-03 0
2.869719e+00 1.908103e-03 0
2.868647e+00 1.889995e-03 0
2.867583e+00 1.871329e-03 0
2.866526e+00 1.851999e-03 0
2.865476e+00 1.831847e-03 0
2.864435e+00 1.810633e-03 0
2.863402e+00 1.787990e-03 0
2.862378e+00 1.763337e-03 0
2.861364e+00 1.735732e-03 0
2.860361e+00 1.703570e-03 0
2.859371e+00 1.664022e-03 0
2.858394e+00 1.611816e-03 0
2.857431e+00 1.538496e-03 0
2.856454e+00 1.520497e-03 0
2.856454e+00 1.545684e-03 0
3.794513e+00 -7.971036e-05 0
3.794513e+00 -7.332457e-05 0
3.794538e+00 -4.757378e-05 0
3.794554e+00 4.313122e-06 0
3.794555e+00 8.356709e-05 0
3.794536e+00 1.923949e-04 0
3.794489e+00 3.334500e-04 0
3.794407e+00 5.100903e-04 0
3.794281e+00 7.263742e-04 0
3.794101e+00 9.870320e-04 0
3.793858e+00 1.297470e-03 0
3.793538e+00 1.663768e-03 0
3.793129e+00 2.092704e-03 0
3.792614e+00 2.591832e-03 0
3.791977e+00 3.169576e-03 0
3.791198e+00 3.835459e-03 0
3.790256e+00 4.600385e-03 0
3.789127e+00 5.476957e-03 0
3.787784e+00 6.479972e-03 0
3.786199e+00 7.626973e-03 0
3.784336e+00 8.938954e-03 0
3.782158e+00 1.044132e-02 0
3.779620e+00 1.216488e-02 0
3.776669e+00 1.414690e-02 0
3.773242e+00 1.643175e-02 0
3.769260e+00 1.907035e-02 0
3.764621e+00 2.211630e-02 0
3.759186e+00 2.561406e-02 0
3.752754e+00 2.956805e-02 0
3.745027e+00 3.386952e-02 0
3.735581e+00 3.813940e-02 0
3.723927e+00 4.145142e-02 0
3.710011e+00 4.209986e-02 0
3.695924e+00 3.856290e-02 0
3.685727e+00 3.192121e-02 0
3.679222e+00 2.474254e-02 0
3.675210e+00 1.842144e-02 0
3.672722e+00 1.335014e-02 0
3.671150e+00 9.460718e-03 0
3.670144e+00 6.543846e-03 0
3.669500e+00 4.381124e-03 0
3.669094e+00 2.786930e-03 0
3.668845e+00 1.615768e-03 0
3.668689e+00 7.611633e-04 0
3.668584e+00 1.459271e-04 0
3.668485e+00 -2.875496e-04 0
3.668374e+00 -5.761798e-04 0
3.668246e+00 -7.444633e-04 0
3.668098e+00 -8.142368e-04 0
3.667927e+00 -8.044076e-04 0
3.667734e+00 -7.311485e-04 0
3.667520e+00 -6.082261e-04 0
3.667283e+00 -4.475026e-04 0
3.667025e+00 -2.594387e-04 0
3.666751e+00 -5.832114e-05 0
3.666461e+00 1.445404e-04 0
3.666153e+00 3.480690e-04 0
3.665816e+00 5.490626e-04 0
3.665446e+00 7.422003e-04 0
3.665040e+00 9.256739e-04 0
3.664598e+00 1.098909e-03 0
3.664119e+00 1.262248e-03 0
3.663604e+00 1.416433e-03 0
3.663055e+00 1.562158e-03 0
3.662472e+00 1.699980e-03 0
3.661858e+00 1.830336e-03 0
3.661213e+00 1.953592e-03 0
3.660539e+00 2.070064e-03 0
3.659839e+00 2.180045e-03 0
3.659113e+00 2.283804e-03 0
3.658363e+00 2.381596e-03 0
3.657589e+00 2.473663e-03 0
3.656795e+00 2.560237e-03 0
3.655980e+00 2.641550e-03 0
3.655145e+00 2.717833e-03 0
3.654293e+00 2.789315e-03 0
3.653424e+00 2.856222e-03 0
3.652538e+00 2.918770e-03 0
3.651638e+00 2.977161e-03 0
3.650724e+00 3.031589e-03 0
3.649797e+00 3.082240e-03 0
3.648858e+00 3.129298e-03 0
3.647907e+00 3.172943e-03 0
3.646945e+00 3.213348e-03 0
3.645974e+00 3.250680e-03 0
3.644993e+00 3.285090e-03 0
3.644004e+00 3.316726e-03 0
3.643007e+00 3.345726e-03 0
3.642003e+00 3.372225e-03 0
3.640991e+00 3.396352e-03 0
3.639974e+00 3.418232e-03 0
3.638951e+00 3.437985e-03 0
3.637922e+00 3.455721e-03 0
3.636889e+00 3.471545e-03 0
3.635851e+00 3.485553e-03 0
3.634810e+00 3.497835e-03 0
3.633765e+00 3.508480e-03 0
3.632716e+00 3.517575e-03 0
3.631665e+00 3.525203e-03 0
3.630611e+00 3.531445e-03 0
3.629555e+00 3.536372e-03 0
3.628498e+00 3.540047e-03 0
3.627438e+00 3.542529e-03 0
3.626377e+00 3.543874e-03 0
3.625316e+00 3.544140e-03 0
3.624253e+00 3.543383e-03 0
3.623190e+00 3.541656e-03 0
3.622126e+00 3.539008e-03 0
3.621063e+00 3.535480e-03 0
3.619999e+00 3.531110e-03 0
3.618936e+00 3.525932e-03 0
3.617873e+00 3.519981e-03 0
3.616810e+00 3.513290e-03 0
3.615749e+00 3.505889e-03 0
3.614689e+00 3.497809e-03 0
3.613629e+00 3.489075e-03 0
3.612571e+00 3.479711e-03 0
3.611514e+00 3.469738e-03 0
3.610459e+00 3.459174e-03 0
3.609406e+00 3.448037e-03 0
3.608355e+00 3.436344e-03 0
3.607305e+00 3.424107e-03 0
3.606258e+00 3.411343e-03 0
3.605213e+00 3.398061e-03 0
3.604170e+00 3.384273e-03 0
3.603130e+00 3.369988e-03 0
3.602093e+00 3.355211e-03 0
3.601058e+00 3.339951e-03 0
3.600026e+00 3.324211e-03 0
3.598997e+00 3.307997e-03 0
3.597971e+00 3.291311e-03 0
3.596949e+00 3.274156e-03 0
3.595930e+00 3.256532e-03 0
3.594914e+00 3.238438e-03 0
3.593902e+00 3.219873e-03 0
3.592894e+00 3.200834e-03 0
3.591889e+00 3.181319e-03 0
3.590889e+00 3.161324e-03 0
3.589892e+00 3.140843e-03 0
3.588900e+00 3.119868e-03 0
3.587912e+00 3.098388e-03 0
3.586929e+00 3.076389e-03 0
3.585950e+00 3.053848e-03 0
3.584976e+00 3.030735e-03 0
3.584007e+00 3.007007e-03 0
3.583043e+00 2.982601e-03 0
3.582084e+00 2.957426e-03 0
3.581130e+00 2.931349e-03 0
3.580182e+00 2.904174e-03 0
3.579239e+00 2.875607e-03 0
3.578303e+00 2.845212e-03 0
3.577372e+00 2.812327e-03 0
3.576448e+00 2.775949e-03 0
3.575530e+00 2.734555e-03 0
3.574617e+00 2.685905e-03 0
3.573709e+00 2.627133e-03 0
3.572802e+00 2.555326e-03 0
3.571884e+00 2.488428e-03 0
3.571884e+00 2.461036e-03 0
4.181005e+00 -1.128137e-04 0
4.181005e+00 -1.047469e-04 0
4.181037e+00 -7.364079e-05 0
4.181064e+00 -1.195183e-05 0
4.181082e+00 8.211824e-05 0
4.181087e+00 2.111755e-04 0
4.181075e+00 3.785447e-04 0
4.181041e+00 5.884045e-04 0
4.180979e+00 8.457443e-04 0
4.180883e+00 1.156355e-03 0
4.180744e+00 1.526824e-03 0
4.180556e+00 1.964514e-03 0
4.180307e+00 2.477598e-03 0
4.179988e+00 3.075111e-03 0
4.179585e+00 3.767097e-03 0
4.179086e+00 4.564838e-03 0
4.178476e+00 5.481109e-03 0
4.177739e+00 6.530615e-03 0
4.176858e+00 7.730493e-03 0
4.175814e+00 9.101002e-03 0
4.174585e+00 1.066652e-02 0
4.173150e+00 1.245672e-02 0
4.171481e+00 1.450819e-02 0
4.169548e+00 1.686652e-02 0
4.167314e+00 1.958890e-02 0
4.164730e+00 2.274749e-02 0
4.161723e+00 2.643341e-02 0
4.158178e+00 3.075955e-02 0
4.153887e+00 3.585466e-02 0
4.148449e+00 4.181811e-02 0
4.141053e+00 4.852849e-02 0
4.130136e+00 5.500209e-02 0
4.113271e+00 5.770155e-02 0
4.093577e+00 5.173193e-02 0
4.084120e+00 3.995563e-02 0
4.080584e+00 2.901877e-02 0
4.079592e+00 2.058349e-02 0
4.079553e+00 1.443172e-02 0
4.079818e+00 1.000240e-02 0
4.080144e+00 6.810612e-03 0
4.080450e+00 4.503206e-03 0
4.080711e+00 2.832981e-03 0
4.080921e+00 1.627627e-03 0
4.081077e+00 7.666504e-04 0
4.081178e+00 1.653059e-04 0
4.081226e+00 -2.391581e-04 0
4.081219e+00 -4.920245e-04 0
4.081162e+00 -6.243626e-04 0
4.081060e+00 -6.604450e-04 0
4.080919e+00 -6.199113e-04 0
4.080744e+00 -5.189526e-04 0
4.080540e+00 -3.709156e-04 0
4.080311e+00 -1.876200e-04 0
4.080061e+00 1.733351e-05 0
4.079792e+00 2.355443e-04 0
4.079501e+00 4.632260e-04 0
4.079184e+00 6.944641e-04 0
4.078844e+00 9.239132e-04 0
4.078479e+00 1.147420e-03 0
4.078087e+00 1.362579e-03 0
4.077669e+00 1.568187e-03 0
4.077223e+00 1.763873e-03 0
4.076751e+00 1.949742e-03 0
4.076252e+00 2.126093e-03 0
4.075729e+00 2.293278e-03 0
4.075181e+00 2.451651e-03 0
4.074611e+00 2.601555e-03 0
4.074019e+00 2.743321e-03 0
4.073406e+00 2.877270e-03 0
4.072774e+00 3.003708e-03 0
4.072124e+00 3.122930e-03 0
4.071456e+00 3.235226e-03 0