<?xml version="1.0"?>
<VTKFile type="StructuredGrid">
<StructuredGrid WholeExtent="0 158 0 30 0 0 ">
<Piece Extent="0 158 0 30 0 0 ">
<Points>
<DataArray type="Float64" format="ascii" NumberOfComponents="3">
0.000000e+00 0.000000e+00 0.000000e+00
3.164557e-02 0.000000e+00 0.000000e+00
6.329114e-02 0.000000e+00 0.000000e+00
9.493671e-02 0.000000e+00 0.000000e+00
1.265823e-01 0.000000e+00 0.000000e+00
1.582278e-01 0.000000e+00 0.000000e+00
1.898734e-01 0.000000e+00 0.000000e+00
2.215190e-01 0.000000e+00 0.000000e+00
2.531646e-01 0.000000e+00 0.000000e+00
2.848101e-01 0.000000e+00 0.000000e+00
3.164557e-01 0.000000e+00 0.000000e+00
3.481013e-01 0.000000e+00 0.000000e+00
3.797468e-01 0.000000e+00 0.000000e+00
4.113924e-01 0.000000e+00 0.000000e+00
4.430380e-01 0.000000e+00 0.000000e+00
4.746835e-01 0.000000e+00 0.000000e+00
5.063291e-01 0.000000e+00 0.000000e+00
5.379747e-01 0.000000e+00 0.000000e+00
5.696203e-01 0.000000e+00 0.000000e+00
6.012658e-01 0.000000e+00 0.000000e+00
6.329114e-01 0.000000e+00 0.000000e+00
6.645570e-01 0.000000e+00 0.000000e+00
6.962025e-01 0.000000e+00 0.000000e+00
7.278481e-01 0.000000e+00 0.000000e+00
7.594937e-01 0.000000e+00 0.000000e+00
7.911392e-01 0.000000e+00 0.000000e+00
8.227848e-01 0.000000e+00 0.000000e+00
8.544304e-01 0.000000e+00 0.000000e+00
8.860759e-01 0.000000e+00 0.000000e+00
9.177215e-01 0.000000e+00 0.000000e+00
9.493671e-01 0.000000e+00 0.000000e+00
9.810127e-01 0.000000e+00 0.000000e+00
1.012658e+00 0.000000e+00 0.000000e+00
1.044304e+00 0.000000e+00 0.000000e+00
1.075949e+00 0.000000e+00 0.000000e+00
1.107595e+00 0.000000e+00 0.000000e+00
1.139241e+00 0.000000e+00 0.000000e+00
1.170886e+00 0.000000e+00 0.000000e+00
1.202532e+00 0.000000e+00 0.000000e+00
1.234177e+00 0.000000e+00 0.000000e+00
1.265823e+00 0.000000e+00 0.000000e+00
1.297468e+00 0.000000e+00 0.000000e+00
1.329114e+00 0.000000e+00 0.000000e+00
1.360759e+00 0.000000e+00 0.000000e+00
1.392405e+00 0.000000e+00 0.000000e+00
1.424051e+00 0.000000e+00 0.000000e+00
1.455696e+00 0.000000e+00 0.000000e+00
1.487342e+00 0.000000e+00 0.000000e+00
1.518987e+00 0.000000e+00 0.000000e+00
1.550633e+00 0.000000e+00 0.000000e+00
1.582278e+00 0.000000e+00 0.000000e+00
1.613924e+00 0.000000e+00 0.000000e+00
1.645570e+00 0.000000e+00 0.000000e+00
1.677215e+00 0.000000e+00 0.000000e+00
1.708861e+00 0.000000e+00 0.000000e+00
1.740506e+00 0.000000e+00 0.000000e+00
1.772152e+00 0.000000e+00 0.000000e+00
1.803797e+00 0.000000e+00 0.000000e+00
1.835443e+00 0.000000e+00 0.000000e+00
1.867089e+00 0.000000e+00 0.000000e+00
1.898734e+00 0.000000e+00 0.000000e+00
1.930380e+00 0.000000e+00 0.000000e+00
1.962025e+00 0.000000e+00 0.000000e+00
1.993671e+00 0.000000e+00 0.000000e+00
2.025316e+00 0.000000e+00 0.000000e+00
2.056962e+00 0.000000e+00 0.000000e+00
2.088608e+00 0.000000e+00 0.000000e+00
2.120253e+00 0.000000e+00 0.000000e+00
2.151899e+00 0.000000e+00 0.000000e+00
2.183544e+00 0.000000e+00 0.000000e+00
2.215190e+00 0.000000e+00 0.000000e+00
2.246835e+00 0.000000e+00 0.000000e+00
2.278481e+00 0.000000e+00 0.000000e+00
2.310127e+00 0.000000e+00 0.000000e+00
2.341772e+00 0.000000e+00 0.000000e+00
2.373418e+00 0.000000e+00 0.000000e+00
2.405063e+00 0.000000e+00 0.000000e+00
2.436709e+00 0.000000e+00 0.000000e+00
2.468354e+00 0.000000e+00 0.000000e+00
2.500000e+00 0.000000e+00 0.000000e+00
2.531646e+00 0.000000e+00 0.000000e+00
2.563291e+00 0.000000e+00 0.000000e+00
2.594937e+00 0.000000e+00 0.000000e+00
2.626582e+00 0.000000e+00 0.000000e+00
2.658228e+00 0.000000e+00 0.000000e+00
2.689873e+00 0.000000e+00 0.000000e+00
2.721519e+00 0.000000e+00 0.000000e+00
2.753165e+00 0.000000e+00 0.000000e+00
2.784810e+00 0.000000e+00 0.000000e+00
2.816456e+00 0.000000e+00 0.000000e+00
2.848101e+00 0.000000e+00 0.000000e+00
2.879747e+00 0.000000e+00 0.000000e+00
2.911392e+00 0.000000e+00 0.000000e+00
2.943038e+00 0.000000e+00 0.000000e+00
2.974684e+00 0.000000e+00 0.000000e+00
3.006329e+00 0.000000e+00 0.000000e+00
3.037975e+00 0.000000e+00 0.000000e+00
3.069620e+00 0.000000e+00 0.000000e+00
3.101266e+00 0.000000e+00 0.000000e+00
3.132911e+00 0.000000e+00 0.000000e+00
3.164557e+00 0.000000e+00 0.000000e+00
3.196203e+00 0.000000e+00 0.000000e+00
3.227848e+00 0.000000e+00 0.000000e+00
3.259494e+00 0.000000e+00 0.000000e+00
3.291139e+00 0.000000e+00 0.000000e+00
3.322785e+00 0.000000e+00 0.000000e+00
3.354430e+00 0.000000e+00 0.000000e+00
3.386076e+00 0.000000e+00 0.000000e+00
3.417722e+00 0.000000e+00 0.000000e+00
3.449367e+00 0.000000e+00 0.000000e+00
3.481013e+00 0.000000e+00 0.000000e+00
3.512658e+00 0.000000e+00 0.000000e+00
3.544304e+00 0.000000e+00 0.000000e+00
3.575949e+00 0.000000e+00 0.000000e+00
3.607595e+00 0.000000e+00 0.000000e+00
3.639241e+00 0.000000e+00 0.000000e+00
3.670886e+00 0.000000e+00 0.000000e+00
3.702532e+00 0.000000e+00 0.000000e+00
3.734177e+00 0.000000e+00 0.000000e+00
3.765823e+00 0.000000e+00 0.000000e+00
3.797468e+00 0.000000e+00 0.000000e+00
3.829114e+00 0.000000e+00 0.000000e+00
3.860759e+00 0.000000e+00 0.000000e+00
3.892405e+00 0.000000e+00 0.000000e+00
3.924051e+00 0.000000e+00 0.000000e+00
3.955696e+00 0.000000e+00 0.000000e+00
3.987342e+00 0.000000e+00 0.000000e+00
4.018987e+00 0.000000e+00 0.000000e+00
4.050633e+00 0.000000e+00 0.000000e+00
4.082278e+00 0.000000e+00 0.000000e+00
4.113924e+00 0.000000e+00 0.000000e+00
4.145570e+00 0.000000e+00 0.000000e+00
4.177215e+00 0.000000e+00 0.000000e+00
4.208861e+00 0.000000e+00 0.000000e+00
4.240506e+00 0.000000e+00 0.000000e+00
4.272152e+00 0.000000e+00 0.000000e+00
4.303797e+00 0.000000e+00 0.000000e+00
4.335443e+00 0.000000e+00 0.000000e+00
4.367089e+00 0.000000e+00 0.000000e+00
4.398734e+00 0.000000e+00 0.000000e+00
4.430380e+00 0.000000e+00 0.000000e+00
4.462025e+00 0.000000e+00 0.000000e+00
4.493671e+00 0.000000e+00 0.000000e+00
4.525316e+00 0.000000e+00 0.000000e+00
4.556962e+00 0.000000e+00 0.000000e+00
4.588608e+00 0.000000e+00 0.000000e+00
4.620253e+00 0.000000e+00 0.000000e+00
4.651899e+00 0.000000e+00 0.000000e+00
4.683544e+00 0.000000e+00 0.000000e+00
4.715190e+00 0.000000e+00 0.000000e+00
4.746835e+00 0.000000e+00 0.000000e+00
4.778481e+00 0.000000e+00 0.000000e+00
4.810127e+00 0.000000e+00 0.000000e+00
4.841772e+00 0.000000e+00 0.000000e+00
4.873418e+00 0.000000e+00 0.000000e+00
4.905063e+00 0.000000e+00 0.000000e+00
4.936709e+00 0.000000e+00 0.000000e+00
4.968354e+00 0.000000e+00 0.000000e+00
5.000000e+00 0.000000e+00 0.000000e+00
0.000000e+00 3.333333e-02 0.000000e+00
3.164557e-02 3.333333e-02 0.000000e+00
6.329114e-02 3.333333e-02 0.000000e+00
9.493671e-02 3.333333e-02 0.000000e+00
1.265823e-01 3.333333e-02 0.000000e+00
1.582278e-01 3.333333e-02 0.000000e+00
1.898734e-01 3.333333e-02 0.000000e+00
2.215190e-01 3.333333e-02 0.000000e+00
2.531646e-01 3.333333e-02 0.000000e+00
2.848101e-01 3.333333e-02 0.000000e+00
3.164557e-01 3.333333e-02 0.000000e+00
3.481013e-01 3.333333e-02 0.000000e+00
3.797468e-01 3.333333e-02 0.000000e+00
4.113924e-01 3.333333e-02 0.000000e+00
4.430380e-01 3.333333e-02 0.000000e+00
4.746835e-01 3.333333e-02 0.000000e+00
5.063291e-01 3.333333e-02 0.000000e+00
5.379747e-01 3.333333e-02 0.000000e+00
5.696203e-01 3.333333e-02 0.000000e+00
6.012658e-01 3.333333e-02 0.000000e+00
6.329114e-01 3.333333e-02 0.000000e+00
6.645570e-01 3.333333e-02 0.000000e+00
6.962025e-01 3.333333e-02 0.000000e+00
7.278481e-01 3.333333e-02 0.000000e+00
7.594937e-01 3.333333e-02 0.000000e+00
7.911392e-01 3.333333e-02 0.000000e+00
8.227848e-01 3.333333e-02 0.000000e+00
8.544304e-01 3.333333e-02 0.000000e+00
8.860759e-01 3.333333e-02 0.000000e+00
9.177215e-01 3.333333e-02 0.000000e+00
9.493671e-01 3.333333e-02 0.000000e+00
9.810127e-01 3.333333e-02 0.000000e+00
1.012658e+00 3.333333e-02 0.000000e+00
1.044304e+00 3.333333e-02 0.000000e+00
1.075949e+00 3.333333e-02 0.000000e+00
1.107595e+00 3.333333e-02 0.000000e+00
1.139241e+00 3.333333e-02 0.000000e+00
1.170886e+00 3.333333e-02 0.000000e+00
1.202532e+00 3.333333e-02 0.000000e+00
1.234177e+00 3.333333e-02 0.000000e+00
1.265823e+00 3.333333e-02 0.000000e+00
1.297468e+00 3.333333e-02 0.000000e+00
1.329114e+00 3.333333e-02 0.000000e+00
1.360759e+00 3.333333e-02 0.000000e+00
1.392405e+00 3.333333e-02 0.000000e+00
1.424051e+00 3.333333e-02 0.000000e+00
1.455696e+00 3.333333e-02 0.000000e+00
1.487342e+00 3.333333e-02 0.000000e+00
1.518987e+00 3.333333e-02 0.000000e+00
1.550633e+00 3.333333e-02 0.000000e+00
1.582278e+00 3.333333e-02 0.000000e+00
1.613924e+00 3.333333e-02 0.000000e+00
1.645570e+00 3.333333e-02 0.000000e+00
1.677215e+00 3.333333e-02 0.000000e+00
1.708861e+00 3.333333e-02 0.000000e+00
1.740506e+00 3.333333e-02 0.000000e+00
1.772152e+00 3.333333e-02 0.000000e+00
1.803797e+00 3.333333e-02 0.000000e+00
1.835443e+00 3.333333e-02 0.000000e+00
1.867089e+00 3.333333e-02 0.000000e+00
1.898734e+00 3.333333e-02 0.000000e+00
1.930380e+00 3.333333e-02 0.000000e+00
1.962025e+00 3.333333e-02 0.000000e+00
1.993671e+00 3.333333e-02 0.000000e+00
2.025316e+00 3.333333e-02 0.000000e+00
2.056962e+00 3.333333e-02 0.000000e+00
2.088608e+00 3.333333e-02 0.000000e+00
2.120253e+00 3.333333e-02 0.000000e+00
2.151899e+00 3.333333e-02 0.000000e+00
2.183544e+00 3.333333e-02 0.000000e+00
2.215190e+00 3.333333e-02 0.000000e+00
2.246835e+00 3.333333e-02 0.000000e+00
2.278481e+00 3.333333e-02 0.000000e+00
2.310127e+00 3.333333e-02 0.000000e+00
2.341772e+00 3.333333e-02 0.000000e+00
2.373418e+00 3.333333e-02 0.000000e+00
2.405063e+00 3.333333e-02 0.000000e+00
2.436709e+00 3.333333e-02 0.000000e+00
2.468354e+00 3.333333e-02 0.000000e+00
2.500000e+00 3.333333e-02 0.000000e+00
2.531646e+00 3.333333e-02 0.000000e+00
2.563291e+00 3.333333e-02 0.000000e+00
2.594937e+00 3.333333e-02 0.000000e+00
2.626582e+00 3.333333e-02 0.000000e+00
2.658228e+00 3.333333e-02 0.000000e+00
2.689873e+00 3.333333e-02 0.000000e+00
2.721519e+00 3.333333e-02 0.000000e+00
2.753165e+00 3.333333e-02 0.000000e+00
2.784810e+00 3.333333e-02 0.000000e+00
2.816456e+00 3.333333e-02 0.000000e+00
2.848101e+00 3.333333e-02 0.000000e+00
2.879747e+00 3.333333e-02 0.000000e+00
[...]
<PointData>
<DataArray Name="Velocity" type="Float64" format="ascii" NumberOfComponents="3">
0.000000e+00 0.000000e+00 0
0.000000e+00 0.000000e+00 0
0.000000e+00 0.000000e+00 0
0.000000e+00 0.000000e+00 0
0.000000e+00 0.000000e+00 0
0.000000e+00 0.000000e+00 0
0.000000e+00 0.000000e+00 0
0.000000e+00 0.000000e+00 0
0.000000e+00 0.000000e+00 0
0.000000e+00 0.000000e+00 0
0.000000e+00 0.000000e+00 0
0.000000e+00 0.000000e+00 0
0.000000e+00 0.000000e+00 0
0.000000e+00 0.000000e+00 0
0.000000e+00 0.000000e+00 0
0.000000e+00 0.000000e+00 0
0.000000e+00 0.000000e+00 0
0.000000e+00 0.000000e+00 0
0.000000e+00 0.000000e+00 0
2.590246e-18 0.000000e+00 0
0.000000e+00 0.000000e+00 0
0.000000e+00 0.000000e+00 0
0.000000e+00 0.000000e+00 0
-2.167198e-17 0.000000e+00 0
0.000000e+00 0.000000e+00 0
0.000000e+00 0.000000e+00 0
0.000000e+00 0.000000e+00 0
-8.713536e-18 0.000000e+00 0
0.000000e+00 0.000000e+00 0
0.000000e+00 0.000000e+00 0
0.000000e+00 0.000000e+00 0
1.154806e-17 0.000000e+00 0
0.000000e+00 0.000000e+00 0
0.000000e+00 0.000000e+00 0
0.000000e+00 0.000000e+00 0
0.000000e+00 0.000000e+00 0
0.000000e+00 0.000000e+00 0
0.000000e+00 0.000000e+00 0
-3.391562e-18 0.000000e+00 0
0.000000e+00 0.000000e+00 0
0.000000e+00 0.000000e+00 0
0.000000e+00 0.000000e+00 0
0.000000e+00 0.000000e+00 0
0.000000e+00 0.000000e+00 0
0.000000e+00 0.000000e+00 0
0.000000e+00 0.000000e+00 0
-1.735812e-18 0.000000e+00 0
0.000000e+00 0.000000e+00 0
0.000000e+00 0.000000e+00 0
0.000000e+00 0.000000e+00 0
0.000000e+00 0.000000e+00 0
0.000000e+00 0.000000e+00 0
0.000000e+00 0.000000e+00 0
0.000000e+00 0.000000e+00 0
-7.822168e-18 0.000000e+00 0
0.000000e+00 0.000000e+00 0
0.000000e+00 0.000000e+00 0
0.000000e+00 0.000000e+00 0
0.000000e+00 0.000000e+00 0
0.000000e+00 0.000000e+00 0
0.000000e+00 0.000000e+00 0
0.000000e+00 0.000000e+00 0
-5.082754e-18 0.000000e+00 0
0.000000e+00 0.000000e+00 0
0.000000e+00 0.000000e+00 0
0.000000e+00 0.000000e+00 0
0.000000e+00 0.000000e+00 0
0.000000e+00 0.000000e+00 0
0.000000e+00 0.000000e+00 0
0.000000e+00 0.000000e+00 0
0.000000e+00 0.000000e+00 0
0.000000e+00 0.000000e+00 0
0.000000e+00 0.000000e+00 0
0.000000e+00 0.000000e+00 0
0.000000e+00 0.000000e+00 0
0.000000e+00 0.000000e+00 0
0.000000e+00 0.000000e+00 0
0.000000e+00 0.000000e+00 0
0.000000e+00 0.000000e+00 0
0.000000e+00 0.000000e+00 0
0.000000e+00 0.000000e+00 0
0.000000e+00 0.000000e+00 0
0.000000e+00 0.000000e+00 0
0.000000e+00 0.000000e+00 0
0.000000e+00 0.000000e+00 0
0.000000e+00 0.000000e+00 0
0.000000e+00 0.000000e+00 0
0.000000e+00 0.000000e+00 0
0.000000e+00 0.000000e+00 0
0.000000e+00 0.000000e+00 0
0.000000e+00 0.000000e+00 0
0.000000e+00 0.000000e+00 0
0.000000e+00 0.000000e+00 0
0.000000e+00 0.000000e+00 0
0.000000e+00 0.000000e+00 0
0.000000e+00 0.000000e+00 0
0.000000e+00 0.000000e+00 0
0.000000e+00 0.000000e+00 0
0.000000e+00 0.000000e+00 0
0.000000e+00 0.000000e+00 0
0.000000e+00 0.000000e+00 0
0.000000e+00 0.000000e+00 0
0.000000e+00 0.000000e+00 0
0.000000e+00 0.000000e+00 0
0.000000e+00 0.000000e+00 0
0.000000e+00 0.000000e+00 0
0.000000e+00 0.000000e+00 0
0.000000e+00 0.000000e+00 0
0.000000e+00 0.000000e+00 0
0.000000e+00 0.000000e+00 0
0.000000e+00 0.000000e+00 0
0.000000e+00 0.000000e+00 0
0.000000e+00 0.000000e+00 0
0.000000e+00 0.000000e+00 0
0.000000e+00 0.000000e+00 0
0.000000e+00 0.000000e+00 0
0.000000e+00 0.000000e+00 0
0.000000e+00 0.000000e+00 0
0.000000e+00 0.000000e+00 0
0.000000e+00 0.000000e+00 0
0.000000e+00 0.000000e+00 0
0.000000e+00 0.000000e+00 0
0.000000e+00 0.000000e+00 0
0.000000e+00 0.000000e+00 0
0.000000e+00 0.000000e+00 0
0.000000e+00 0.000000e+00 0
0.000000e+00 0.000000e+00 0
0.000000e+00 0.000000e+00 0
0.000000e+00 0.000000e+00 0
0.000000e+00 0.000000e+00 0
0.000000e+00 0.000000e+00 0
0.000000e+00 0.000000e+00 0
0.000000e+00 0.000000e+00 0
0.000000e+00 0.000000e+00 0
0.000000e+00 0.000000e+00 0
0.000000e+00 0.000000e+00 0
0.000000e+00 0.000000e+00 0
0.000000e+00 0.000000e+00 0
0.000000e+00 0.000000e+00 0
0.000000e+00 0.000000e+00 0
0.000000e+00 0.000000e+00 0
0.000000e+00 0.000000e+00 0
0.000000e+00 0.000000e+00 0
0.000000e+00 0.000000e+00 0
0.000000e+00 0.000000e+00 0
0.000000e+00 0.000000e+00 0
0.000000e+00 0.000000e+00 0
0.000000e+00 0.000000e+00 0
0.000000e+00 0.000000e+00 0
0.000000e+00 0.000000e+00 0
0.000000e+00 0.000000e+00 0
0.000000e+00 0.000000e+00 0
0.000000e+00 0.000000e+00 0
0.000000e+00 0.000000e+00 0
0.000000e+00 0.000000e+00 0
0.000000e+00 0.000000e+00 0
0.000000e+00 0.000000e+00 0
0.000000e+00 0.000000e+00 0
0.000000e+00 0.000000e+00 0
8.502473e-01 -1.444859e-04 0
8.502473e-01 -1.532026e-04 0
8.503785e-01 -1.446001e-04 0
8.504805e-01 -9.299081e-05 0
8.505300e-01 -1.670621e-05 0
8.505058e-01 7.739573e-05 0
8.503841e-01 1.950870e-04 0
8.501381e-01 3.421435e-04 0
8.497374e-01 5.233957e-04 0
8.491470e-01 7.439607e-04 0
8.483267e-01 1.009625e-03 0
8.472306e-01 1.327021e-03 0
8.458058e-01 1.703779e-03 0
8.439918e-01 2.148689e-03 0
8.417187e-01 2.671925e-03 0
8.389064e-01 3.285331e-03 0
8.354626e-01 4.002795e-03 0
8.312803e-01 4.840725e-03 0
8.262357e-01 5.818644e-03 0
8.201844e-01 6.959893e-03 0
8.129574e-01 8.292435e-03 0
8.043564e-01 9.849666e-03 0
7.941475e-01 1.167104e-02 0
7.820549e-01 1.380210e-02 0
7.677545e-01 1.629294e-02 0
7.508690e-01 1.919340e-02 0
7.309691e-01 2.254153e-02 0
7.075878e-01 2.633960e-02 0
6.802653e-01 3.050854e-02 0
6.486498e-01 3.481154e-02 0
6.127010e-01 3.874880e-02 0
5.730354e-01 4.147284e-02 0
5.313841e-01 4.188456e-02 0
4.908341e-01 3.917917e-02 0
4.549850e-01 3.371816e-02 0
4.257835e-01 2.684905e-02 0
4.035001e-01 1.985672e-02 0
3.874809e-01 1.347148e-02 0
3.767967e-01 7.845426e-03 0
3.706723e-01 1.364406e-03 0
3.683379e-01 -5.778355e-03 0
3.693312e-01 -1.118833e-02 0
3.727908e-01 -1.434053e-02 0
3.778412e-01 -1.564049e-02 0
3.837543e-01 -1.566897e-02 0
3.899904e-01 -1.494337e-02 0
3.961817e-01 -1.383251e-02 0
4.020939e-01 -1.256656e-02 0
4.075881e-01 -1.127657e-02 0
4.125895e-01 -1.003134e-02 0
4.170654e-01 -8.863290e-03 0
4.210095e-01 -7.784603e-03 0
4.244316e-01 -6.796735e-03 0
4.273508e-01 -5.896234e-03 0
4.297925e-01 -5.077692e-03 0
4.317858e-01 -4.335347e-03 0
4.333634e-01 -3.662691e-03 0
4.345551e-01 -3.053684e-03 0
4.353928e-01 -2.506518e-03 0
4.359171e-01 -2.020457e-03 0
4.361708e-01 -1.590582e-03 0
4.362006e-01 -1.207045e-03 0
4.360601e-01 -8.753357e-04 0
4.357812e-01 -6.050088e-04 0
4.353895e-01 -3.908759e-04 0
4.349079e-01 -2.267816e-04 0
4.343574e-01 -1.065322e-04 0
4.337567e-01 -2.392096e-05 0
4.331221e-01 2.735237e-05 0
4.324680e-01 5.495700e-05 0
4.318071e-01 6.566590e-05 0
4.311498e-01 6.396957e-05 0
4.305049e-01 5.408953e-05 0
4.298790e-01 4.012499e-05 0
4.292776e-01 2.579850e-05 0
4.287047e-01 1.402705e-05 0
4.281632e-01 6.596980e-06 0
4.276554e-01 4.122822e-06 0
4.271827e-01 6.182792e-06 0
4.267459e-01 1.167426e-05 0
4.263455e-01 1.914076e-05 0
4.259819e-01 2.704548e-05 0
4.256553e-01 3.406365e-05 0
4.253664e-01 3.912901e-05 0
4.251157e-01 4.130921e-05 0
4.249047e-01 3.924518e-05 0
4.247363e-01 2.979747e-05 0
4.246151e-01 8.273843e-06 0
4.245492e-01 -2.458316e-05 0
4.245499e-01 -6.708392e-05 0
4.246176e-01 -1.176512e-04 0
4.247444e-01 -1.690995e-04 0
4.249210e-01 -2.149129e-04 0
4.251381e-01 -2.514433e-04 0
4.253866e-01 -2.768611e-04 0
4.256581e-01 -2.903874e-04 0
4.259440e-01 -2.919388e-04 0
4.262363e-01 -2.818808e-04 0
4.265267e-01 -2.607473e-04 0
4.268070e-01 -2.289495e-04 0
4.270684e-01 -1.865245e-04 0
4.273010e-01 -1.328495e-04 0
4.274940e-01 -6.537055e-05 0
4.276364e-01 2.577554e-05 0
4.277227e-01 1.492723e-04 0
4.277520e-01 3.006098e-04 0
4.277164e-01 4.736259e-04 0
4.275983e-01 6.715786e-04 0
4.273762e-01 9.023428e-04 0
4.270284e-01 1.170664e-03 0
4.265364e-01 1.472433e-03 0
4.258895e-01 1.788425e-03 0
4.250899e-01 2.080442e-03 0
4.241556e-01 2.294617e-03 0
4.231206e-01 2.372755e-03 0
4.220307e-01 2.267425e-03 0
4.209419e-01 1.954570e-03 0
4.199208e-01 1.438349e-03 0
4.190532e-01 7.524255e-04 0
4.184748e-01 -9.791580e-06 0
4.184158e-01 -7.686694e-04 0
4.190657e-01 -1.554276e-03 0
4.205583e-01 -2.424749e-03 0
4.230147e-01 -3.401425e-03 0
4.265468e-01 -4.482082e-03 0
4.312480e-01 -5.646653e-03 0
4.371821e-01 -6.862727e-03 0
4.443746e-01 -8.091048e-03 0
4.528089e-01 -9.290697e-03 0
4.624280e-01 -1.042355e-02 0
4.731402e-01 -1.145757e-02 0
4.848266e-01 -1.236879e-02 0
4.973511e-01 -1.314188e-02 0
5.105687e-01 -1.376975e-02 0
5.243335e-01 -1.425233e-02 0
5.385046e-01 -1.459502e-02 0
5.529504e-01 -1.480700e-02 0
5.675515e-01 -1.489978e-02 0
5.822016e-01 -1.488592e-02 0
5.968077e-01 -1.477810e-02 0
6.112899e-01 -1.458849e-02 0
6.255801e-01 -1.432832e-02 0
6.396208e-01 -1.400776e-02 0
6.533641e-01 -1.363586e-02 0
6.667702e-01 -1.322060e-02 0
6.798065e-01 -1.276903e-02 0
6.924466e-01 -1.228734e-02 0
7.046693e-01 -1.178100e-02 0
7.164583e-01 -1.125480e-02 0
7.278014e-01 -1.071282e-02 0
7.386893e-01 -1.015834e-02 0
7.491158e-01 -9.593509e-03 0
7.590760e-01 -9.018907e-03 0
7.685651e-01 -8.432680e-03 0
7.775761e-01 -7.829194e-03 0
7.860957e-01 -7.198974e-03 0
7.940990e-01 -6.486267e-03 0
8.015256e-01 -6.535045e-03 0
8.015256e-01 -6.973359e-03 0
1.196063e+00 -2.857116e-04 0
1.196063e+00 -2.810156e-04 0
1.196179e+00 -2.456055e-04 0
1.196272e+00 -1.596502e-04 0
1.196331e+00 -2.667767e-05 0
1.196332e+00 1.537498e-04 0
1.196253e+00 3.872985e-04 0
1.196068e+00 6.811635e-04 0
1.195753e+00 1.044020e-03 0
1.195275e+00 1.485944e-03 0
1.194602e+00 2.018573e-03 0
1.193692e+00 2.655310e-03 0
1.192500e+00 3.411575e-03 0
1.190974e+00 4.305139e-03 0
1.189052e+00 5.356560e-03 0
1.186665e+00 6.589770e-03 0
1.183733e+00 8.032841e-03 0
1.180164e+00 9.718971e-03 0
1.175849e+00 1.168771e-02 0
1.170664e+00 1.398644e-02 0
1.164461e+00 1.667213e-02 0
1.157068e+00 1.981315e-02 0
1.148278e+00 2.349093e-02 0
1.137848e+00 2.780061e-02 0
1.125482e+00 3.284911e-02 0
1.110827e+00 3.874732e-02 0
1.093460e+00 4.558953e-02 0
1.072876e+00 5.340803e-02 0
1.048500e+00 6.208138e-02 0
1.019732e+00 7.116775e-02 0
9.861009e-01 7.964721e-02 0
9.476798e-01 8.565372e-02 0
9.059490e-01 8.658540e-02 0
8.649496e-01 8.047376e-02 0
8.304168e-01 6.851998e-02 0
8.038958e-01 5.423082e-02 0
7.844872e-01 4.034543e-02 0
7.706792e-01 2.812753e-02 0
7.610980e-01 1.770501e-02 0
7.546053e-01 8.909989e-03 0
7.488401e-01 1.412694e-03 0
7.432234e-01 -4.690344e-03 0
7.380957e-01 -8.963827e-03 0
7.336846e-01 -1.154818e-02 0
7.300764e-01 -1.279715e-02 0
7.272230e-01 -1.309016e-02 0
7.249991e-01 -1.274898e-02 0
7.232548e-01 -1.201471e-02 0
7.218462e-01 -1.105530e-02 0
7.206507e-01 -9.982697e-03 0
7.195693e-01 -8.869015e-03 0
7.185251e-01 -7.759033e-03 0
7.174588e-01 -6.679456e-03 0
7.163246e-01 -5.646813e-03 0
7.150908e-01 -4.671548e-03 0
7.137351e-01 -3.761292e-03 0
7.122540e-01 -2.916967e-03 0
7.106667e-01 -2.137600e-03 0
7.089971e-01 -1.434607e-03 0
7.072549e-01 -8.194483e-04 0
7.054479e-01 -2.985081e-04 0
7.035849e-01 1.166271e-04 0
7.016763e-01 4.417353e-04 0
6.997241e-01 7.064829e-04 0
6.977300e-01 9.200215e-04 0
6.956965e-01 1.087150e-03 0
6.936265e-01 1.212614e-03 0
6.915235e-01 1.301212e-03 0
6.893920e-01 1.357463e-03 0
6.872377e-01 1.385262e-03 0
6.850681e-01 1.388569e-03 0
6.828911e-01 1.371696e-03 0
6.807140e-01 1.338599e-03 0
6.785446e-01 1.292749e-03 0
6.763906e-01 1.237055e-03 0
6.742603e-01 1.173907e-03 0
6.721615e-01 1.105304e-03 0
6.701021e-01 1.032930e-03 0
6.680888e-01 9.581475e-04 0
6.661279e-01 8.819277e-04 0
6.642243e-01 8.048303e-04 0
6.623822e-01 7.270550e-04 0
6.606051e-01 6.484680e-04 0
6.588962e-01 5.685799e-04 0
6.572583e-01 4.863502e-04 0
6.556947e-01 3.997400e-04 0
6.542080e-01 3.051855e-04 0
6.527994e-01 1.971926e-04 0
6.514664e-01 6.885915e-05 0
6.502060e-01 -7.181626e-05 0
6.490128e-01 -2.046968e-04 0
6.478842e-01 -3.194754e-04 0
6.468208e-01 -4.144594e-04 0
6.458250e-01 -4.902007e-04 0
6.449001e-01 -5.474906e-04 0
6.440499e-01 -5.868975e-04 0
6.432780e-01 -6.088139e-04 0
6.425880e-01 -6.134918e-04 0
6.419833e-01 -6.008758e-04 0
6.414665e-01 -5.702769e-04 0
6.410398e-01 -5.200863e-04 0
6.407026e-01 -4.479965e-04 0
6.404509e-01 -3.529080e-04 0
6.402764e-01 -2.406018e-04 0
6.401754e-01 -1.214751e-04 0
6.401461e-01 6.921773e-06 0
6.401844e-01 1.622958e-04 0
6.402882e-01 3.587380e-04 0
6.404583e-01 6.006000e-04 0
6.406974e-01 8.849976e-04 0
6.410138e-01 1.200011e-03 0
6.414168e-01 1.524056e-03 0
6.419071e-01 1.826799e-03 0
6.424673e-01 2.074761e-03 0
6.430516e-01 2.238638e-03 0
6.435876e-01 2.295300e-03 0
6.440000e-01 2.222885e-03 0
6.442600e-01 1.989854e-03 0
6.444499e-01 1.523595e-03 0
6.447725e-01 6.718094e-04 0
6.454675e-01 -6.220231e-04 0
6.467903e-01 -2.256325e-03 0
6.489625e-01 -4.159191e-03 0
6.521715e-01 -6.307434e-03 0
6.565654e-01 -8.671971e-03 0
6.622466e-01 -1.120213e-02 0
6.692655e-01 -1.382623e-02 0
6.776191e-01 -1.645976e-02 0
6.872541e-01 -1.901590e-02 0
6.980744e-01 -2.141522e-02 0
7.099518e-01 -2.359276e-02 0
7.227372e-01 -2.550180e-02 0
7.362713e-01 -2.711464e-02 0
7.503941e-01 -2.842108e-02 0
7.649519e-01 -2.942541e-02 0
7.798025e-01 -3.014283e-02 0
7.948183e-01 -3.059581e-02 0
8.098876e-01 -3.081091e-02 0
8.249147e-01 -3.081620e-02 0
8.398193e-01 -3.063940e-02 0
8.545351e-01 -3.030660e-02 0
8.690083e-01 -2.984160e-02 0
8.831959e-01 -2.926558e-02 0
8.970640e-01 -2.859714e-02 0
9.105865e-01 -2.785245e-02 0
9.237440e-01 -2.704555e-02 0
9.365223e-01 -2.618862e-02 0
9.489121e-01 -2.529226e-02 0
9.609077e-01 -2.436562e-02 0
9.725070e-01 -2.341648e-02 0
9.837106e-01 -2.245111e-02 0
9.945217e-01 -2.147388e-02 0
1.004945e+00 -2.048651e-02 0
1.014986e+00 -1.948666e-02 0
1.024652e+00 -1.846553e-02 0
1.033946e+00 -1.740409e-02 0
1.042864e+00 -1.625283e-02 0
1.051432e+00 -1.521474e-02 0
1.051432e+00 -1.478396e-02 0
1.334179e+00 -4.307619e-04 0
1.334179e+00 -4.182200e-04 0
1.334310e+00 -3.647669e-04 0
1.334425e+00 -2.531374e-04 0
1.334515e+00 -7.978403e-05 0
1.334566e+00 1.600807e-04 0
1.334565e+00 4.732016e-04 0
1.334493e+00 8.688783e-04 0
1.334334e+00 1.358642e-03 0
1.334065e+00 1.956171e-03 0
1.333661e+00 2.677385e-03 0
1.333095e+00 3.540646e-03 0
1.332334e+00 4.567058e-03 0
1.331341e+00 5.780893e-03 0
1.330072e+00 7.210171e-03 0
1.328480e+00 8.887457e-03 0
1.326507e+00 1.085091e-02 0
1.324091e+00 1.314566e-02 0
1.321157e+00 1.582556e-02 0
1.317620e+00 1.895539e-02 0
1.313382e+00 2.261355e-02 0
1.308326e+00 2.689520e-02 0
1.302312e+00 3.191574e-02 0
1.295172e+00 3.781412e-02 0
1.286695e+00 4.475457e-02 0
1.276612e+00 5.292393e-02 0
1.264567e+00 6.251733e-02 0
1.250068e+00 7.369658e-02 0
1.232410e+00 8.648658e-02 0
1.210575e+00 1.005390e-01 0
1.183155e+00 1.146438e-01 0
1.148593e+00 1.258995e-01 0
1.106675e+00 1.290270e-01 0
1.063147e+00 1.187397e-01 0
1.031879e+00 9.802820e-02 0
1.012148e+00 7.522820e-02 0
1.000017e+00 5.484488e-02 0
9.923737e-01 3.810813e-02 0
9.872864e-01 2.477664e-02 0
9.834898e-01 1.427608e-02 0
9.802620e-01 6.210542e-03 0
9.769021e-01 1.291645e-04 0
9.733275e-01 -4.293003e-03 0
9.697219e-01 -7.193515e-03 0
9.662526e-01 -8.862631e-03 0
9.630178e-01 -9.595295e-03 0
9.600496e-01 -9.652660e-03 0
9.573354e-01 -9.245488e-03 0
9.548385e-01 -8.533600e-03 0
9.525133e-01 -7.632915e-03 0
9.503133e-01 -6.624287e-03 0
9.481945e-01 -5.561577e-03 0
9.461150e-01 -4.478873e-03 0
9.440303e-01 -3.401853e-03 0
9.419113e-01 -2.350042e-03 0
9.397585e-01 -1.347329e-03 0
9.375686e-01 -4.307099e-04 0
9.353382e-01 3.769553e-04 0
9.330635e-01 1.087269e-03 0
9.307376e-01 1.718093e-03 0
9.283524e-01 2.275250e-03 0
9.258951e-01 2.765696e-03 0
9.233444e-01 3.191406e-03 0
9.207009e-01 3.551804e-03 0
9.179704e-01 3.851458e-03 0
9.151593e-01 4.095615e-03 0
9.122745e-01 4.289139e-03 0
9.093233e-01 4.436421e-03 0
9.063135e-01 4.541740e-03 0
9.032530e-01 4.609458e-03 0
9.001489e-01 4.644130e-03 0
8.970088e-01 4.650351e-03 0
8.938399e-01 4.632405e-03 0
8.906495e-01 4.594084e-03 0
8.874446e-01 4.538628e-03 0
8.842321e-01 4.468737e-03 0
8.810186e-01 4.386623e-03 0
8.778106e-01 4.294050e-03 0
8.746148e-01 4.192345e-03 0
8.714375e-01 4.082399e-03 0
8.682852e-01 3.964684e-03 0
8.651642e-01 3.839307e-03 0
8.620806e-01 3.706061e-03 0
8.590404e-01 3.564436e-03 0
8.560495e-01 3.413581e-03 0
8.531129e-01 3.252310e-03 0
8.502346e-01 3.079551e-03 0
8.474164e-01 2.896141e-03 0
8.446556e-01 2.707237e-03 0
8.419449e-01 2.517541e-03 0
8.392872e-01 2.328083e-03 0
8.366932e-01 2.139895e-03 0
8.341749e-01 1.954208e-03 0
8.317441e-01 1.771751e-03 0
8.294121e-01 1.593014e-03 0
8.271900e-01 1.418357e-03 0
8.250887e-01 1.247990e-03 0
8.231190e-01 1.082007e-03 0
8.212920e-01 9.206515e-04 0
8.196185e-01 7.650025e-04 0
8.181087e-01 6.182818e-04 0
8.167710e-01 4.875436e-04 0
8.156082e-01 3.837008e-04 0
8.146113e-01 3.160942e-04 0
8.137616e-01 2.866770e-04 0
8.130468e-01 2.913272e-04 0
8.124704e-01 3.241106e-04 0
8.120506e-01 3.832536e-04 0
8.118072e-01 4.715357e-04 0
8.117531e-01 5.856638e-04 0
8.119085e-01 7.148242e-04 0
8.122921e-01 8.476132e-04 0
8.129100e-01 9.740071e-04 0
8.137520e-01 1.089256e-03 0
8.148008e-01 1.192921e-03 0
8.160542e-01 1.268672e-03 0
8.175514e-01 1.246534e-03 0
8.193940e-01 9.645951e-04 0
8.217309e-01 2.127255e-04 0
8.246979e-01 -1.081409e-03 0
8.283723e-01 -2.893842e-03 0
8.328870e-01 -5.235549e-03 0
8.384162e-01 -8.092804e-03 0
8.451036e-01 -1.140966e-02 0
8.530337e-01 -1.509437e-02 0
8.622242e-01 -1.902391e-02 0
8.726307e-01 -2.305491e-02 0
8.841572e-01 -2.703879e-02 0
8.966702e-01 -3.083672e-02 0
9.100123e-01 -3.433168e-02 0
9.240157e-01 -3.743560e-02 0
9.385128e-01 -4.009186e-02 0
9.533436e-01 -4.227366e-02 0
9.683617e-01 -4.397982e-02 0
9.834374e-01 -4.522907e-02 0
9.984586e-01 -4.605420e-02 0
1.013332e+00 -4.649648e-02 0
1.027980e+00 -4.660114e-02 0
1.042342e+00 -4.641384e-02 0
1.056370e+00 -4.597816e-02 0
1.070030e+00 -4.533416e-02 0
1.083295e+00 -4.451757e-02 0
1.096148e+00 -4.355962e-02 0
1.108579e+00 -4.248725e-02 0
1.120582e+00 -4.132348e-02 0
1.132157e+00 -4.008799e-02 0
1.143304e+00 -3.879762e-02 0
1.154030e+00 -3.746683e-02 0
1.164341e+00 -3.610806e-02 0
1.174247e+00 -3.473191e-02 0
1.183759e+00 -3.334712e-02 0
1.192890e+00 -3.196026e-02 0
1.201654e+00 -3.057497e-02 0
1.210068e+00 -2.919059e-02 0
1.218151e+00 -2.779964e-02 0
1.225929e+00 -2.638294e-02 0
1.233429e+00 -2.490579e-02 0
1.240721e+00 -2.322982e-02 0
1.240721e+00 -2.231287e-02 0
1.400682e+00 -5.855597e-04 0
1.400682e+00 -5.690007e-04 0
1.400830e+00 -5.045304e-04 0
1.400967e+00 -3.751548e-04 0
1.401087e+00 -1.754972e-04 0
1.401184e+00 1.013158e-04 0
1.401248e+00 4.641289e-04 0
1.401269e+00 9.243230e-04 0
1.401234e+00 1.495639e-03 0
1.401128e+00 2.194389e-03 0
1.400934e+00 3.039546e-03 0
1.400632e+00 4.052923e-03 0
1.400199e+00 5.259463e-03 0
1.399609e+00 6.687677e-03 0
1.398832e+00 8.370267e-03 0
1.397835e+00 1.034500e-02 0
1.396580e+00 1.265587e-02 0
1.395027e+00 1.535470e-02 0
1.393129e+00 1.850319e-02 0
1.390835e+00 2.217558e-02 0
1.388088e+00 2.646215e-02 0
1.384822e+00 3.147354e-02 0
1.380962e+00 3.734647e-02 0
1.376415e+00 4.425082e-02 0
1.371064e+00 5.239871e-02 0
1.364749e+00 6.205532e-02 0
1.357228e+00 7.355005e-02 0
1.348104e+00 8.728049e-02 0
1.336669e+00 1.036802e-01 0
1.321585e+00 1.230497e-01 0
1.300262e+00 1.449347e-01 0
1.267926e+00 1.662123e-01 0
1.217784e+00 1.765890e-01 0
1.155307e+00 1.592592e-01 0
1.126803e+00 1.222383e-01 0
1.117062e+00 8.779210e-02 0
1.114818e+00 6.117479e-02 0
1.114977e+00 4.153715e-02 0
1.115524e+00 2.706276e-02 0
1.115697e+00 1.630899e-02 0
1.115253e+00 8.351710e-03 0
1.114222e+00 2.614009e-03 0
1.112504e+00 -1.400682e-03 0
1.110321e+00 -4.095888e-03 0
1.107896e+00 -5.735418e-03 0
1.105398e+00 -6.556402e-03 0
1.102935e+00 -6.763519e-03 0
1.100564e+00 -6.525597e-03 0
1.098307e+00 -5.976035e-03 0
1.096164e+00 -5.216209e-03 0
1.094122e+00 -4.319875e-03 0
1.092161e+00 -3.336769e-03 0
1.090260e+00 -2.293132e-03 0
1.088379e+00 -1.218877e-03 0
1.086505e+00 -1.718805e-04 0
1.084627e+00 8.129912e-04 0
1.082733e+00 1.739109e-03 0
1.080797e+00 2.607822e-03 0
1.078791e+00 3.411351e-03 0
1.076707e+00 4.142907e-03 0
1.074542e+00 4.802332e-03 0
1.072294e+00 5.391800e-03 0
1.069965e+00 5.912937e-03 0
1.067557e+00 6.367122e-03 0
1.065070e+00 6.757238e-03 0