<?xml version="1.0"?>
<VTKFile type="StructuredGrid">
<StructuredGrid WholeExtent="0 158 0 30 0 0 ">
<Piece Extent="0 158 0 30 0 0 ">
<Points>
<DataArray type="Float64" format="ascii" NumberOfComponents="3">
0.000000e+00 0.000000e+00 0.000000e+00
3.164557e-02 0.000000e+00 0.000000e+00
6.329114e-02 0.000000e+00 0.000000e+00
9.493671e-02 0.000000e+00 0.000000e+00
1.265823e-01 0.000000e+00 0.000000e+00
1.582278e-01 0.000000e+00 0.000000e+00
1.898734e-01 0.000000e+00 0.000000e+00
2.215190e-01 0.000000e+00 0.000000e+00
2.531646e-01 0.000000e+00 0.000000e+00
2.848101e-01 0.000000e+00 0.000000e+00
3.164557e-01 0.000000e+00 0.000000e+00
3.481013e-01 0.000000e+00 0.000000e+00
3.797468e-01 0.000000e+00 0.000000e+00
4.113924e-01 0.000000e+00 0.000000e+00
4.430380e-01 0.000000e+00 0.000000e+00
4.746835e-01 0.000000e+00 0.000000e+00
5.063291e-01 0.000000e+00 0.000000e+00
5.379747e-01 0.000000e+00 0.000000e+00
5.696203e-01 0.000000e+00 0.000000e+00
6.012658e-01 0.000000e+00 0.000000e+00
6.329114e-01 0.000000e+00 0.000000e+00
6.645570e-01 0.000000e+00 0.000000e+00
6.962025e-01 0.000000e+00 0.000000e+00
7.278481e-01 0.000000e+00 0.000000e+00
7.594937e-01 0.000000e+00 0.000000e+00
7.911392e-01 0.000000e+00 0.000000e+00
8.227848e-01 0.000000e+00 0.000000e+00
8.544304e-01 0.000000e+00 0.000000e+00
8.860759e-01 0.000000e+00 0.000000e+00
9.177215e-01 0.000000e+00 0.000000e+00
9.493671e-01 0.000000e+00 0.000000e+00
9.810127e-01 0.000000e+00 0.000000e+00
1.012658e+00 0.000000e+00 0.000000e+00
1.044304e+00 0.000000e+00 0.000000e+00
1.075949e+00 0.000000e+00 0.000000e+00
1.107595e+00 0.000000e+00 0.000000e+00
1.139241e+00 0.000000e+00 0.000000e+00
1.170886e+00 0.000000e+00 0.000000e+00
1.202532e+00 0.000000e+00 0.000000e+00
1.234177e+00 0.000000e+00 0.000000e+00
1.265823e+00 0.000000e+00 0.000000e+00
1.297468e+00 0.000000e+00 0.000000e+00
1.329114e+00 0.000000e+00 0.000000e+00
1.360759e+00 0.000000e+00 0.000000e+00
1.392405e+00 0.000000e+00 0.000000e+00
1.424051e+00 0.000000e+00 0.000000e+00
1.455696e+00 0.000000e+00 0.000000e+00
1.487342e+00 0.000000e+00 0.000000e+00
1.518987e+00 0.000000e+00 0.000000e+00
1.550633e+00 0.000000e+00 0.000000e+00
1.582278e+00 0.000000e+00 0.000000e+00
1.613924e+00 0.000000e+00 0.000000e+00
1.645570e+00 0.000000e+00 0.000000e+00
1.677215e+00 0.000000e+00 0.000000e+00
1.708861e+00 0.000000e+00 0.000000e+00
1.740506e+00 0.000000e+00 0.000000e+00
1.772152e+00 0.000000e+00 0.000000e+00
1.803797e+00 0.000000e+00 0.000000e+00
1.835443e+00 0.000000e+00 0.000000e+00
1.867089e+00 0.000000e+00 0.000000e+00
1.898734e+00 0.000000e+00 0.000000e+00
1.930380e+00 0.000000e+00 0.000000e+00
1.962025e+00 0.000000e+00 0.000000e+00
1.993671e+00 0.000000e+00 0.000000e+00
2.025316e+00 0.000000e+00 0.000000e+00
2.056962e+00 0.000000e+00 0.000000e+00
2.088608e+00 0.000000e+00 0.000000e+00
2.120253e+00 0.000000e+00 0.000000e+00
2.151899e+00 0.000000e+00 0.000000e+00
2.183544e+00 0.000000e+00 0.000000e+00
2.215190e+00 0.000000e+00 0.000000e+00
2.246835e+00 0.000000e+00 0.000000e+00
2.278481e+00 0.000000e+00 0.000000e+00
2.310127e+00 0.000000e+00 0.000000e+00
2.341772e+00 0.000000e+00 0.000000e+00
2.373418e+00 0.000000e+00 0.000000e+00
2.405063e+00 0.000000e+00 0.000000e+00
2.436709e+00 0.000000e+00 0.000000e+00
2.468354e+00 0.000000e+00 0.000000e+00
2.500000e+00 0.000000e+00 0.000000e+00
2.531646e+00 0.000000e+00 0.000000e+00
2.563291e+00 0.000000e+00 0.000000e+00
2.594937e+00 0.000000e+00 0.000000e+00
2.626582e+00 0.000000e+00 0.000000e+00
2.658228e+00 0.000000e+00 0.000000e+00
2.689873e+00 0.000000e+00 0.000000e+00
2.721519e+00 0.000000e+00 0.000000e+00
2.753165e+00 0.000000e+00 0.000000e+00
2.784810e+00 0.000000e+00 0.000000e+00
2.816456e+00 0.000000e+00 0.000000e+00
2.848101e+00 0.000000e+00 0.000000e+00
2.879747e+00 0.000000e+00 0.000000e+00
2.911392e+00 0.000000e+00 0.000000e+00
2.943038e+00 0.000000e+00 0.000000e+00
2.974684e+00 0.000000e+00 0.000000e+00
3.006329e+00 0.000000e+00 0.000000e+00
3.037975e+00 0.000000e+00 0.000000e+00
3.069620e+00 0.000000e+00 0.000000e+00
3.101266e+00 0.000000e+00 0.000000e+00
3.132911e+00 0.000000e+00 0.000000e+00
3.164557e+00 0.000000e+00 0.000000e+00
3.196203e+00 0.000000e+00 0.000000e+00
3.227848e+00 0.000000e+00 0.000000e+00
3.259494e+00 0.000000e+00 0.000000e+00
3.291139e+00 0.000000e+00 0.000000e+00
3.322785e+00 0.000000e+00 0.000000e+00
3.354430e+00 0.000000e+00 0.000000e+00
3.386076e+00 0.000000e+00 0.000000e+00
3.417722e+00 0.000000e+00 0.000000e+00
3.449367e+00 0.000000e+00 0.000000e+00
3.481013e+00 0.000000e+00 0.000000e+00
3.512658e+00 0.000000e+00 0.000000e+00
3.544304e+00 0.000000e+00 0.000000e+00
3.575949e+00 0.000000e+00 0.000000e+00
3.607595e+00 0.000000e+00 0.000000e+00
3.639241e+00 0.000000e+00 0.000000e+00
3.670886e+00 0.000000e+00 0.000000e+00
3.702532e+00 0.000000e+00 0.000000e+00
3.734177e+00 0.000000e+00 0.000000e+00
3.765823e+00 0.000000e+00 0.000000e+00
3.797468e+00 0.000000e+00 0.000000e+00
3.829114e+00 0.000000e+00 0.000000e+00
3.860759e+00 0.000000e+00 0.000000e+00
3.892405e+00 0.000000e+00 0.000000e+00
3.924051e+00 0.000000e+00 0.000000e+00
3.955696e+00 0.000000e+00 0.000000e+00
3.987342e+00 0.000000e+00 0.000000e+00
4.018987e+00 0.000000e+00 0.000000e+00
4.050633e+00 0.000000e+00 0.000000e+00
4.082278e+00 0.000000e+00 0.000000e+00
4.113924e+00 0.000000e+00 0.000000e+00
4.145570e+00 0.000000e+00 0.000000e+00
4.177215e+00 0.000000e+00 0.000000e+00
4.208861e+00 0.000000e+00 0.000000e+00
4.240506e+00 0.000000e+00 0.000000e+00
4.272152e+00 0.000000e+00 0.000000e+00
4.303797e+00 0.000000e+00 0.000000e+00
4.335443e+00 0.000000e+00 0.000000e+00
4.367089e+00 0.000000e+00 0.000000e+00
4.398734e+00 0.000000e+00 0.000000e+00
4.430380e+00 0.000000e+00 0.000000e+00
4.462025e+00 0.000000e+00 0.000000e+00
4.493671e+00 0.000000e+00 0.000000e+00
4.525316e+00 0.000000e+00 0.000000e+00
4.556962e+00 0.000000e+00 0.000000e+00
4.588608e+00 0.000000e+00 0.000000e+00
4.620253e+00 0.000000e+00 0.000000e+00
4.651899e+00 0.000000e+00 0.000000e+00
4.683544e+00 0.000000e+00 0.000000e+00
4.715190e+00 0.000000e+00 0.000000e+00
4.746835e+00 0.000000e+00 0.000000e+00
4.778481e+00 0.000000e+00 0.000000e+00
4.810127e+00 0.000000e+00 0.000000e+00
4.841772e+00 0.000000e+00 0.000000e+00
4.873418e+00 0.000000e+00 0.000000e+00
4.905063e+00 0.000000e+00 0.000000e+00
4.936709e+00 0.000000e+00 0.000000e+00
4.968354e+00 0.000000e+00 0.000000e+00
5.000000e+00 0.000000e+00 0.000000e+00
0.000000e+00 3.333333e-02 0.000000e+00
3.164557e-02 3.333333e-02 0.000000e+00
6.329114e-02 3.333333e-02 0.000000e+00
9.493671e-02 3.333333e-02 0.000000e+00
1.265823e-01 3.333333e-02 0.000000e+00
1.582278e-01 3.333333e-02 0.000000e+00
1.898734e-01 3.333333e-02 0.000000e+00
2.215190e-01 3.333333e-02 0.000000e+00
2.531646e-01 3.333333e-02 0.000000e+00
2.848101e-01 3.333333e-02 0.000000e+00
3.164557e-01 3.333333e-02 0.000000e+00
3.481013e-01 3.333333e-02 0.000000e+00
3.797468e-01 3.333333e-02 0.000000e+00
4.113924e-01 3.333333e-02 0.000000e+00
4.430380e-01 3.333333e-02 0.000000e+00
4.746835e-01 3.333333e-02 0.000000e+00
5.063291e-01 3.333333e-02 0.000000e+00
5.379747e-01 3.333333e-02 0.000000e+00
5.696203e-01 3.333333e-02 0.000000e+00
6.012658e-01 3.333333e-02 0.000000e+00
6.329114e-01 3.333333e-02 0.000000e+00
6.645570e-01 3.333333e-02 0.000000e+00
6.962025e-01 3.333333e-02 0.000000e+00
7.278481e-01 3.333333e-02 0.000000e+00
7.594937e-01 3.333333e-02 0.000000e+00
7.911392e-01 3.333333e-02 0.000000e+00
8.227848e-01 3.333333e-02 0.000000e+00
8.544304e-01 3.333333e-02 0.000000e+00
8.860759e-01 3.333333e-02 0.000000e+00
9.177215e-01 3.333333e-02 0.000000e+00
9.493671e-01 3.333333e-02 0.000000e+00
9.810127e-01 3.333333e-02 0.000000e+00
1.012658e+00 3.333333e-02 0.000000e+00
1.044304e+00 3.333333e-02 0.000000e+00
1.075949e+00 3.333333e-02 0.000000e+00
1.107595e+00 3.333333e-02 0.000000e+00
1.139241e+00 3.333333e-02 0.000000e+00
1.170886e+00 3.333333e-02 0.000000e+00
1.202532e+00 3.333333e-02 0.000000e+00
1.234177e+00 3.333333e-02 0.000000e+00
1.265823e+00 3.333333e-02 0.000000e+00
1.297468e+00 3.333333e-02 0.000000e+00
1.329114e+00 3.333333e-02 0.000000e+00
1.360759e+00 3.333333e-02 0.000000e+00
1.392405e+00 3.333333e-02 0.000000e+00
1.424051e+00 3.333333e-02 0.000000e+00
1.455696e+00 3.333333e-02 0.000000e+00
1.487342e+00 3.333333e-02 0.000000e+00
1.518987e+00 3.333333e-02 0.000000e+00
1.550633e+00 3.333333e-02 0.000000e+00
1.582278e+00 3.333333e-02 0.000000e+00
1.613924e+00 3.333333e-02 0.000000e+00
1.645570e+00 3.333333e-02 0.000000e+00
1.677215e+00 3.333333e-02 0.000000e+00
1.708861e+00 3.333333e-02 0.000000e+00
1.740506e+00 3.333333e-02 0.000000e+00
1.772152e+00 3.333333e-02 0.000000e+00
1.803797e+00 3.333333e-02 0.000000e+00
1.835443e+00 3.333333e-02 0.000000e+00
1.867089e+00 3.333333e-02 0.000000e+00
1.898734e+00 3.333333e-02 0.000000e+00
1.930380e+00 3.333333e-02 0.000000e+00
1.962025e+00 3.333333e-02 0.000000e+00
1.993671e+00 3.333333e-02 0.000000e+00
2.025316e+00 3.333333e-02 0.000000e+00
2.056962e+00 3.333333e-02 0.000000e+00
2.088608e+00 3.333333e-02 0.000000e+00
2.120253e+00 3.333333e-02 0.000000e+00
2.151899e+00 3.333333e-02 0.000000e+00
2.183544e+00 3.333333e-02 0.000000e+00
2.215190e+00 3.333333e-02 0.000000e+00
2.246835e+00 3.333333e-02 0.000000e+00
2.278481e+00 3.333333e-02 0.000000e+00
2.310127e+00 3.333333e-02 0.000000e+00
2.341772e+00 3.333333e-02 0.000000e+00
2.373418e+00 3.333333e-02 0.000000e+00
2.405063e+00 3.333333e-02 0.000000e+00
2.436709e+00 3.333333e-02 0.000000e+00
2.468354e+00 3.333333e-02 0.000000e+00
2.500000e+00 3.333333e-02 0.000000e+00
2.531646e+00 3.333333e-02 0.000000e+00
2.563291e+00 3.333333e-02 0.000000e+00
2.594937e+00 3.333333e-02 0.000000e+00
2.626582e+00 3.333333e-02 0.000000e+00
2.658228e+00 3.333333e-02 0.000000e+00
2.689873e+00 3.333333e-02 0.000000e+00
2.721519e+00 3.333333e-02 0.000000e+00
2.753165e+00 3.333333e-02 0.000000e+00
2.784810e+00 3.333333e-02 0.000000e+00
2.816456e+00 3.333333e-02 0.000000e+00
2.848101e+00 3.333333e-02 0.000000e+00
2.879747e+00 3.333333e-02 0.000000e+00
[...]
<PointData>
<DataArray Name="Velocity" type="Float64" format="ascii" NumberOfComponents="3">
0.000000e+00 0.000000e+00 0
0.000000e+00 0.000000e+00 0
0.000000e+00 0.000000e+00 0
0.000000e+00 0.000000e+00 0
0.000000e+00 0.000000e+00 0
0.000000e+00 0.000000e+00 0
0.000000e+00 0.000000e+00 0
0.000000e+00 0.000000e+00 0
0.000000e+00 0.000000e+00 0
0.000000e+00 0.000000e+00 0
0.000000e+00 0.000000e+00 0
0.000000e+00 0.000000e+00 0
0.000000e+00 0.000000e+00 0
0.000000e+00 0.000000e+00 0
0.000000e+00 0.000000e+00 0
0.000000e+00 0.000000e+00 0
0.000000e+00 0.000000e+00 0
0.000000e+00 0.000000e+00 0
0.000000e+00 0.000000e+00 0
2.187609e-17 0.000000e+00 0
0.000000e+00 0.000000e+00 0
0.000000e+00 0.000000e+00 0
0.000000e+00 0.000000e+00 0
1.466360e-17 0.000000e+00 0
0.000000e+00 0.000000e+00 0
0.000000e+00 0.000000e+00 0
0.000000e+00 0.000000e+00 0
5.924424e-18 0.000000e+00 0
0.000000e+00 0.000000e+00 0
0.000000e+00 0.000000e+00 0
0.000000e+00 0.000000e+00 0
5.801979e-19 0.000000e+00 0
0.000000e+00 0.000000e+00 0
0.000000e+00 0.000000e+00 0
0.000000e+00 0.000000e+00 0
0.000000e+00 0.000000e+00 0
0.000000e+00 0.000000e+00 0
0.000000e+00 0.000000e+00 0
2.601412e-18 0.000000e+00 0
0.000000e+00 0.000000e+00 0
0.000000e+00 0.000000e+00 0
0.000000e+00 0.000000e+00 0
0.000000e+00 0.000000e+00 0
0.000000e+00 0.000000e+00 0
0.000000e+00 0.000000e+00 0
0.000000e+00 0.000000e+00 0
-5.441154e-18 0.000000e+00 0
0.000000e+00 0.000000e+00 0
0.000000e+00 0.000000e+00 0
0.000000e+00 0.000000e+00 0
0.000000e+00 0.000000e+00 0
0.000000e+00 0.000000e+00 0
0.000000e+00 0.000000e+00 0
0.000000e+00 0.000000e+00 0
-9.986508e-18 0.000000e+00 0
0.000000e+00 0.000000e+00 0
0.000000e+00 0.000000e+00 0
0.000000e+00 0.000000e+00 0
0.000000e+00 0.000000e+00 0
0.000000e+00 0.000000e+00 0
0.000000e+00 0.000000e+00 0
0.000000e+00 0.000000e+00 0
9.880864e-18 0.000000e+00 0
0.000000e+00 0.000000e+00 0
0.000000e+00 0.000000e+00 0
0.000000e+00 0.000000e+00 0
0.000000e+00 0.000000e+00 0
0.000000e+00 0.000000e+00 0
0.000000e+00 0.000000e+00 0
0.000000e+00 0.000000e+00 0
0.000000e+00 0.000000e+00 0
0.000000e+00 0.000000e+00 0
0.000000e+00 0.000000e+00 0
0.000000e+00 0.000000e+00 0
0.000000e+00 0.000000e+00 0
0.000000e+00 0.000000e+00 0
0.000000e+00 0.000000e+00 0
0.000000e+00 0.000000e+00 0
0.000000e+00 0.000000e+00 0
0.000000e+00 0.000000e+00 0
0.000000e+00 0.000000e+00 0
0.000000e+00 0.000000e+00 0
0.000000e+00 0.000000e+00 0
0.000000e+00 0.000000e+00 0
0.000000e+00 0.000000e+00 0
0.000000e+00 0.000000e+00 0
0.000000e+00 0.000000e+00 0
0.000000e+00 0.000000e+00 0
0.000000e+00 0.000000e+00 0
0.000000e+00 0.000000e+00 0
0.000000e+00 0.000000e+00 0
0.000000e+00 0.000000e+00 0
0.000000e+00 0.000000e+00 0
0.000000e+00 0.000000e+00 0
0.000000e+00 0.000000e+00 0
0.000000e+00 0.000000e+00 0
0.000000e+00 0.000000e+00 0
0.000000e+00 0.000000e+00 0
0.000000e+00 0.000000e+00 0
0.000000e+00 0.000000e+00 0
0.000000e+00 0.000000e+00 0
0.000000e+00 0.000000e+00 0
0.000000e+00 0.000000e+00 0
0.000000e+00 0.000000e+00 0
0.000000e+00 0.000000e+00 0
0.000000e+00 0.000000e+00 0
0.000000e+00 0.000000e+00 0
0.000000e+00 0.000000e+00 0
0.000000e+00 0.000000e+00 0
0.000000e+00 0.000000e+00 0
0.000000e+00 0.000000e+00 0
0.000000e+00 0.000000e+00 0
0.000000e+00 0.000000e+00 0
0.000000e+00 0.000000e+00 0
0.000000e+00 0.000000e+00 0
0.000000e+00 0.000000e+00 0
0.000000e+00 0.000000e+00 0
0.000000e+00 0.000000e+00 0
0.000000e+00 0.000000e+00 0
0.000000e+00 0.000000e+00 0
0.000000e+00 0.000000e+00 0
0.000000e+00 0.000000e+00 0
0.000000e+00 0.000000e+00 0
0.000000e+00 0.000000e+00 0
0.000000e+00 0.000000e+00 0
0.000000e+00 0.000000e+00 0
0.000000e+00 0.000000e+00 0
0.000000e+00 0.000000e+00 0
0.000000e+00 0.000000e+00 0
0.000000e+00 0.000000e+00 0
0.000000e+00 0.000000e+00 0
0.000000e+00 0.000000e+00 0
0.000000e+00 0.000000e+00 0
0.000000e+00 0.000000e+00 0
0.000000e+00 0.000000e+00 0
0.000000e+00 0.000000e+00 0
0.000000e+00 0.000000e+00 0
0.000000e+00 0.000000e+00 0
0.000000e+00 0.000000e+00 0
0.000000e+00 0.000000e+00 0
0.000000e+00 0.000000e+00 0
0.000000e+00 0.000000e+00 0
0.000000e+00 0.000000e+00 0
0.000000e+00 0.000000e+00 0
0.000000e+00 0.000000e+00 0
0.000000e+00 0.000000e+00 0
0.000000e+00 0.000000e+00 0
0.000000e+00 0.000000e+00 0
0.000000e+00 0.000000e+00 0
0.000000e+00 0.000000e+00 0
0.000000e+00 0.000000e+00 0
0.000000e+00 0.000000e+00 0
0.000000e+00 0.000000e+00 0
0.000000e+00 0.000000e+00 0
0.000000e+00 0.000000e+00 0
0.000000e+00 0.000000e+00 0
0.000000e+00 0.000000e+00 0
0.000000e+00 0.000000e+00 0
0.000000e+00 0.000000e+00 0
1.004070e+00 -1.386511e-04 0
1.004070e+00 -1.493852e-04 0
1.004198e+00 -1.471840e-04 0
1.004303e+00 -1.058877e-04 0
1.004365e+00 -4.076304e-05 0
1.004367e+00 3.892338e-05 0
1.004290e+00 1.349887e-04 0
1.004112e+00 2.538275e-04 0
1.003810e+00 3.998334e-04 0
1.003356e+00 5.772532e-04 0
1.002716e+00 7.907189e-04 0
1.001856e+00 1.045448e-03 0
1.000732e+00 1.347369e-03 0
9.992963e-01 1.703245e-03 0
9.974945e-01 2.120834e-03 0
9.952634e-01 2.609099e-03 0
9.925309e-01 3.178484e-03 0
9.892142e-01 3.841279e-03 0
9.852176e-01 4.612071e-03 0
9.804305e-01 5.508301e-03 0
9.747237e-01 6.550902e-03 0
9.679462e-01 7.764980e-03 0
9.599206e-01 9.180372e-03 0
9.504380e-01 1.083178e-02 0
9.392527e-01 1.275777e-02 0
9.260785e-01 1.499720e-02 0
9.105893e-01 1.758044e-02 0
8.924291e-01 2.051054e-02 0
8.712468e-01 2.372712e-02 0
8.467743e-01 2.704529e-02 0
8.189859e-01 3.007213e-02 0
7.883695e-01 3.214340e-02 0
7.562809e-01 3.241425e-02 0
7.251119e-01 3.030908e-02 0
6.975782e-01 2.616200e-02 0
6.750994e-01 2.102975e-02 0
6.578049e-01 1.589918e-02 0
6.451116e-01 1.134508e-02 0
6.362031e-01 7.563960e-03 0
6.302939e-01 4.506059e-03 0
6.267450e-01 1.848693e-03 0
6.250662e-01 -8.164864e-04 0
6.248933e-01 -3.254434e-03 0
6.259553e-01 -5.084981e-03 0
6.279347e-01 -6.351495e-03 0
6.305465e-01 -7.129612e-03 0
6.335482e-01 -7.508549e-03 0
6.367416e-01 -7.576523e-03 0
6.399700e-01 -7.412378e-03 0
6.431128e-01 -7.082061e-03 0
6.460798e-01 -6.638179e-03 0
6.488056e-01 -6.121275e-03 0
6.512440e-01 -5.561909e-03 0
6.533644e-01 -4.982887e-03 0
6.551487e-01 -4.400786e-03 0
6.565882e-01 -3.827197e-03 0
6.576817e-01 -3.268334e-03 0
6.584288e-01 -2.728594e-03 0
6.588418e-01 -2.208973e-03 0
6.589455e-01 -1.696386e-03 0
6.587884e-01 -1.203246e-03 0
6.583968e-01 -7.598116e-04 0
6.577929e-01 -3.786864e-04 0
6.569985e-01 -8.109375e-05 0
6.560316e-01 1.346724e-04 0
6.549094e-01 3.036860e-04 0
6.536470e-01 4.496792e-04 0
6.522569e-01 5.805520e-04 0
6.507494e-01 6.995726e-04 0
6.491336e-01 8.083970e-04 0
6.474175e-01 9.080016e-04 0
6.456086e-01 9.990406e-04 0
6.437139e-01 1.082026e-03 0
6.417398e-01 1.157428e-03 0
6.396924e-01 1.225720e-03 0
6.375776e-01 1.287369e-03 0
6.354006e-01 1.342805e-03 0
6.331667e-01 1.392388e-03 0
6.308807e-01 1.436399e-03 0
6.285474e-01 1.475051e-03 0
6.261713e-01 1.508518e-03 0
6.237568e-01 1.536961e-03 0
6.213084e-01 1.560549e-03 0
6.188301e-01 1.579476e-03 0
6.163261e-01 1.593957e-03 0
6.138004e-01 1.604227e-03 0
6.112566e-01 1.610529e-03 0
6.086985e-01 1.613105e-03 0
6.061296e-01 1.612183e-03 0
6.035533e-01 1.607969e-03 0
6.009731e-01 1.600640e-03 0
5.983921e-01 1.590339e-03 0
5.958137e-01 1.577176e-03 0
5.932411e-01 1.561230e-03 0
5.906775e-01 1.542558e-03 0
5.881260e-01 1.521209e-03 0
5.855899e-01 1.497230e-03 0
5.830722e-01 1.470683e-03 0
5.805761e-01 1.441662e-03 0
5.781044e-01 1.410297e-03 0
5.756600e-01 1.376766e-03 0
5.732456e-01 1.341303e-03 0
5.708636e-01 1.304190e-03 0
5.685162e-01 1.265757e-03 0
5.662054e-01 1.226371e-03 0
5.639330e-01 1.186418e-03 0
5.617002e-01 1.146288e-03 0
5.595083e-01 1.106355e-03 0
5.573582e-01 1.066954e-03 0
5.552507e-01 1.028370e-03 0
5.531864e-01 9.908100e-04 0
5.511659e-01 9.543898e-04 0
5.491897e-01 9.191049e-04 0
5.472586e-01 8.848126e-04 0
5.453734e-01 8.512431e-04 0
5.435355e-01 8.180970e-04 0
5.417463e-01 7.852602e-04 0
5.400081e-01 7.529772e-04 0
5.383236e-01 7.212874e-04 0
5.366983e-01 6.871516e-04 0
5.351421e-01 6.373461e-04 0
5.336735e-01 5.385885e-04 0
5.323180e-01 3.406642e-04 0
5.310932e-01 3.904193e-05 0
5.299932e-01 -2.621783e-04 0
5.290046e-01 -4.669198e-04 0
5.281096e-01 -5.729557e-04 0
5.272917e-01 -6.101970e-04 0
5.265393e-01 -6.097748e-04 0
5.258453e-01 -5.938646e-04 0
5.252064e-01 -5.751096e-04 0
5.246221e-01 -5.594530e-04 0
5.240940e-01 -5.496173e-04 0
5.236281e-01 -5.482229e-04 0
5.232422e-01 -5.597998e-04 0
5.229773e-01 -5.913563e-04 0
5.229013e-01 -6.578016e-04 0
5.230564e-01 -7.628259e-04 0
5.234339e-01 -8.789357e-04 0
5.240011e-01 -9.738114e-04 0
5.247160e-01 -1.032117e-03 0
5.255359e-01 -1.051895e-03 0
5.264222e-01 -1.038088e-03 0
5.273421e-01 -9.981936e-04 0
5.282702e-01 -9.400098e-04 0
5.291873e-01 -8.706605e-04 0
5.300802e-01 -7.962858e-04 0
5.309408e-01 -7.219809e-04 0
5.317650e-01 -6.517364e-04 0
5.325525e-01 -5.882648e-04 0
5.333048e-01 -5.327060e-04 0
5.340240e-01 -4.842913e-04 0
5.347116e-01 -4.400445e-04 0
5.353655e-01 -3.945185e-04 0
5.359788e-01 -3.397657e-04 0
5.365359e-01 -2.661315e-04 0
5.370062e-01 -1.695720e-04 0
5.373379e-01 -2.302112e-05 0
5.373379e-01 6.977771e-05 0
1.436084e+00 -2.729757e-04 0
1.436084e+00 -2.710914e-04 0
1.436194e+00 -2.451382e-04 0
1.436284e+00 -1.761772e-04 0
1.436348e+00 -6.765122e-05 0
1.436368e+00 7.928865e-05 0
1.436323e+00 2.682035e-04 0
1.436194e+00 5.050709e-04 0
1.435959e+00 7.970411e-04 0
1.435594e+00 1.152233e-03 0
1.435071e+00 1.579872e-03 0
1.434357e+00 2.090450e-03 0
1.433418e+00 2.695910e-03 0
1.432209e+00 3.409883e-03 0
1.430685e+00 4.247995e-03 0
1.428789e+00 5.228294e-03 0
1.426460e+00 6.371814e-03 0
1.423626e+00 7.703307e-03 0
1.420203e+00 9.252183e-03 0
1.416096e+00 1.105366e-02 0
1.411194e+00 1.315010e-02 0
1.405365e+00 1.559254e-02 0
1.398455e+00 1.844201e-02 0
1.390280e+00 2.177028e-02 0
1.380621e+00 2.565863e-02 0
1.369214e+00 3.019212e-02 0
1.355741e+00 3.544406e-02 0
1.339828e+00 4.144076e-02 0
1.321041e+00 4.808973e-02 0
1.298923e+00 5.504814e-02 0
1.273115e+00 6.151983e-02 0
1.243670e+00 6.604929e-02 0
1.211740e+00 6.663136e-02 0
1.180489e+00 6.183356e-02 0
1.154266e+00 5.267986e-02 0
1.134202e+00 4.189458e-02 0
1.119559e+00 3.158717e-02 0
1.109125e+00 2.275395e-02 0
1.101812e+00 1.560808e-02 0
1.096778e+00 9.962619e-03 0
1.093389e+00 5.506599e-03 0
1.091003e+00 1.950502e-03 0
1.088981e+00 -9.364935e-04 0
1.087203e+00 -3.203499e-03 0
1.085620e+00 -4.835908e-03 0
1.084196e+00 -5.912716e-03 0
1.082905e+00 -6.525430e-03 0
1.081719e+00 -6.764210e-03 0
1.080608e+00 -6.710830e-03 0
1.079542e+00 -6.435535e-03 0
1.078492e+00 -5.996277e-03 0
1.077429e+00 -5.439471e-03 0
1.076325e+00 -4.801840e-03 0
1.075156e+00 -4.112866e-03 0
1.073903e+00 -3.395544e-03 0
1.072547e+00 -2.667948e-03 0
1.071085e+00 -1.938630e-03 0
1.069530e+00 -1.221738e-03 0
1.067888e+00 -5.440975e-04 0
1.066167e+00 5.642557e-05 0
1.064378e+00 5.781955e-04 0
1.062519e+00 1.048780e-03 0
1.060584e+00 1.473007e-03 0
1.058562e+00 1.855402e-03 0
1.056425e+00 2.200764e-03 0
1.054161e+00 2.511989e-03 0
1.051773e+00 2.794125e-03 0
1.049267e+00 3.052315e-03 0
1.046650e+00 3.290100e-03 0
1.043929e+00 3.509845e-03 0
1.041110e+00 3.713199e-03 0
1.038199e+00 3.901391e-03 0
1.035201e+00 4.075422e-03 0
1.032121e+00 4.236167e-03 0
1.028964e+00 4.384431e-03 0
1.025735e+00 4.520944e-03 0
1.022438e+00 4.646354e-03 0
1.019077e+00 4.761202e-03 0
1.015656e+00 4.865922e-03 0
1.012179e+00 4.960858e-03 0
1.008651e+00 5.046295e-03 0
1.005074e+00 5.122491e-03 0
1.001452e+00 5.189702e-03 0
9.977901e-01 5.248197e-03 0
9.940900e-01 5.298258e-03 0
9.903558e-01 5.340176e-03 0
9.865906e-01 5.374236e-03 0
9.827979e-01 5.400704e-03 0
9.789808e-01 5.419816e-03 0
9.751427e-01 5.431767e-03 0
9.712868e-01 5.436710e-03 0
9.674163e-01 5.434757e-03 0
9.635346e-01 5.425981e-03 0
9.596449e-01 5.410433e-03 0
9.557504e-01 5.388150e-03 0
9.518544e-01 5.359179e-03 0
9.479601e-01 5.323587e-03 0
9.440707e-01 5.281488e-03 0
9.401893e-01 5.233049e-03 0
9.363189e-01 5.178512e-03 0
9.324626e-01 5.118194e-03 0
9.286231e-01 5.052487e-03 0
9.248033e-01 4.981855e-03 0
9.210059e-01 4.906819e-03 0
9.172335e-01 4.827936e-03 0
9.134886e-01 4.745773e-03 0
9.097736e-01 4.660886e-03 0
9.060910e-01 4.573781e-03 0
9.024433e-01 4.484891e-03 0
8.988328e-01 4.394546e-03 0
8.952622e-01 4.302942e-03 0
8.917339e-01 4.210117e-03 0
8.882508e-01 4.115922e-03 0
8.848157e-01 4.020012e-03 0
8.814320e-01 3.921853e-03 0
8.781030e-01 3.820745e-03 0
8.748327e-01 3.715784e-03 0
8.716260e-01 3.605471e-03 0
8.684896e-01 3.486510e-03 0
8.654323e-01 3.351426e-03 0
8.624637e-01 3.186323e-03 0
8.595873e-01 2.974905e-03 0
8.567851e-01 2.718075e-03 0
8.540070e-01 2.448995e-03 0
8.512138e-01 2.200187e-03 0
8.484371e-01 1.984260e-03 0
8.457194e-01 1.804389e-03 0
8.430912e-01 1.654183e-03 0
8.405694e-01 1.523790e-03 0
8.381604e-01 1.404161e-03 0
8.358662e-01 1.288585e-03 0
8.336874e-01 1.171932e-03 0
8.316269e-01 1.047111e-03 0
8.296924e-01 8.973382e-04 0
8.278972e-01 6.856457e-04 0
8.262555e-01 3.592227e-04 0
8.247666e-01 -8.319518e-05 0
8.234084e-01 -5.608774e-04 0
8.221601e-01 -9.948904e-04 0
8.210120e-01 -1.350400e-03 0
8.199595e-01 -1.616642e-03 0
8.189994e-01 -1.797051e-03 0
8.181270e-01 -1.902436e-03 0
8.173366e-01 -1.946565e-03 0
8.166216e-01 -1.943542e-03 0
8.159753e-01 -1.906461e-03 0
8.153915e-01 -1.846866e-03 0
8.148656e-01 -1.774599e-03 0
8.143947e-01 -1.697648e-03 0
8.139789e-01 -1.621787e-03 0
8.136199e-01 -1.549980e-03 0
8.133193e-01 -1.481786e-03 0
8.130747e-01 -1.412967e-03 0
8.128781e-01 -1.334825e-03 0
8.127172e-01 -1.232760e-03 0
8.125796e-01 -1.082223e-03 0
8.124519e-01 -8.448485e-04 0
8.123172e-01 -2.458263e-04 0
8.123172e-01 2.070943e-04 0
1.617119e+00 -4.090496e-04 0
1.617119e+00 -3.998269e-04 0
1.617241e+00 -3.580521e-04 0
1.617350e+00 -2.684380e-04 0
1.617439e+00 -1.284265e-04 0
1.617498e+00 6.533797e-05 0
1.617515e+00 3.180600e-04 0
1.617477e+00 6.371441e-04 0
1.617367e+00 1.031802e-03 0
1.617170e+00 1.512929e-03 0
1.616864e+00 2.093104e-03 0
1.616426e+00 2.786701e-03 0
1.615832e+00 3.610078e-03 0
1.615051e+00 4.581856e-03 0
1.614049e+00 5.723331e-03 0
1.612787e+00 7.059032e-03 0
1.611222e+00 8.617481e-03 0
1.609303e+00 1.043221e-02 0
1.606973e+00 1.254307e-02 0
1.604168e+00 1.499787e-02 0
1.600812e+00 1.785447e-02 0
1.596817e+00 2.118316e-02 0
1.592079e+00 2.506947e-02 0
1.586473e+00 2.961677e-02 0
1.579842e+00 3.494797e-02 0
1.571990e+00 4.120397e-02 0
1.562653e+00 4.853345e-02 0
1.551465e+00 5.706199e-02 0
1.537897e+00 6.681334e-02 0
1.521167e+00 7.752659e-02 0
1.500170e+00 8.827209e-02 0
1.473656e+00 9.679251e-02 0
1.441419e+00 9.896473e-02 0
1.408158e+00 9.084804e-02 0
1.384400e+00 7.491762e-02 0
1.369575e+00 5.758799e-02 0
1.360638e+00 4.231360e-02 0
1.355180e+00 3.003821e-02 0
1.351739e+00 2.057003e-02 0
1.349482e+00 1.337816e-02 0
1.347912e+00 7.931726e-03 0
1.346703e+00 3.827189e-03 0
1.345607e+00 7.477648e-04 0
1.344436e+00 -1.544715e-03 0
1.343170e+00 -3.183993e-03 0
1.341824e+00 -4.270219e-03 0
1.340421e+00 -4.898741e-03 0
1.338984e+00 -5.156354e-03 0
1.337526e+00 -5.119484e-03 0
1.336056e+00 -4.853375e-03 0
1.334575e+00 -4.412012e-03 0
1.333080e+00 -3.838741e-03 0
1.331564e+00 -3.168316e-03 0
1.330013e+00 -2.431439e-03 0
1.328420e+00 -1.652728e-03 0
1.326795e+00 -8.587534e-04 0
1.325135e+00 -8.961711e-05 0
1.323441e+00 6.382052e-04 0
1.321708e+00 1.333170e-03 0
1.319921e+00 2.001799e-03 0
1.318045e+00 2.639723e-03 0
1.316071e+00 3.236091e-03 0
1.313994e+00 3.788960e-03 0
1.311812e+00 4.299535e-03 0
1.309525e+00 4.770365e-03 0
1.307135e+00 5.204370e-03 0
1.304643e+00 5.605270e-03 0
1.302053e+00 5.976856e-03 0
1.299368e+00 6.322278e-03 0
1.296593e+00 6.643987e-03 0
1.293732e+00 6.943883e-03 0
1.290790e+00 7.223484e-03 0
1.287770e+00 7.484055e-03 0
1.284677e+00 7.726696e-03 0
1.281513e+00 7.952391e-03 0
1.278283e+00 8.162021e-03 0
1.274990e+00 8.356363e-03 0
1.271638e+00 8.536088e-03 0
1.268230e+00 8.701765e-03 0
1.264769e+00 8.853877e-03 0
1.261259e+00 8.992847e-03 0
1.257702e+00 9.119061e-03 0
1.254102e+00 9.232890e-03 0
1.250460e+00 9.334703e-03 0
1.246780e+00 9.424863e-03 0
1.243065e+00 9.503726e-03 0
1.239317e+00 9.571630e-03 0
1.235539e+00 9.628881e-03 0
1.231733e+00 9.675748e-03 0
1.227902e+00 9.712455e-03 0
1.224048e+00 9.739181e-03 0
1.220174e+00 9.756066e-03 0
1.216281e+00 9.763215e-03 0
1.212374e+00 9.760713e-03 0
1.208453e+00 9.748639e-03 0
1.204521e+00 9.727085e-03 0
1.200580e+00 9.696169e-03 0
1.196633e+00 9.656058e-03 0
1.192681e+00 9.606974e-03 0
1.188727e+00 9.549207e-03 0
1.184773e+00 9.483117e-03 0
1.180821e+00 9.409129e-03 0
1.176872e+00 9.327726e-03 0
1.172930e+00 9.239427e-03 0
1.168996e+00 9.144770e-03 0
1.165072e+00 9.044282e-03 0
1.161161e+00 8.938454e-03 0
1.157265e+00 8.827706e-03 0
1.153387e+00 8.712359e-03 0
1.149529e+00 8.592606e-03 0
1.145694e+00 8.468483e-03 0
1.141885e+00 8.339842e-03 0
1.138104e+00 8.206330e-03 0
1.134356e+00 8.067365e-03 0
1.130643e+00 7.922114e-03 0
1.126968e+00 7.769437e-03 0
1.123336e+00 7.607708e-03 0
1.119751e+00 7.434413e-03 0
1.116218e+00 7.245447e-03 0
1.112740e+00 7.034543e-03 0
1.109319e+00 6.794195e-03 0
1.105950e+00 6.520167e-03 0
1.102617e+00 6.218669e-03 0
1.099312e+00 5.907546e-03 0
1.096041e+00 5.604803e-03 0
1.092815e+00 5.320615e-03 0
1.089648e+00 5.058097e-03 0
1.086550e+00 4.814510e-03 0
1.083530e+00 4.584072e-03 0
1.080591e+00 4.360251e-03 0
1.077738e+00 4.136598e-03 0
1.074974e+00 3.905966e-03 0
1.072302e+00 3.658461e-03 0
1.069727e+00 3.380417e-03 0
1.067242e+00 3.060518e-03 0
1.064818e+00 2.706333e-03 0
1.062394e+00 2.341185e-03 0
1.059924e+00 1.982681e-03 0
1.057413e+00 1.645321e-03 0
1.054880e+00 1.344190e-03 0
1.052352e+00 1.087830e-03 0
1.049853e+00 8.784148e-04 0
1.047403e+00 7.134273e-04 0
1.045017e+00 5.875247e-04 0
1.042707e+00 4.939110e-04 0
1.040478e+00 4.250220e-04 0
1.038335e+00 3.726737e-04 0
1.036279e+00 3.280583e-04 0
1.034311e+00 2.822376e-04 0
1.032429e+00 2.278394e-04 0
1.030629e+00 1.620994e-04 0
1.028905e+00 9.000163e-05 0
1.027250e+00 2.465140e-05 0
1.025658e+00 -1.792952e-05 0
1.024129e+00 -2.537134e-05 0
1.022670e+00 1.331621e-05 0
1.021301e+00 1.068148e-04 0
1.020072e+00 5.040492e-04 0
1.020072e+00 8.402357e-04 0
1.704748e+00 -5.522539e-04 0
1.704748e+00 -5.393881e-04 0
1.704884e+00 -4.882902e-04 0
1.705011e+00 -3.846184e-04 0
1.705126e+00 -2.239098e-04 0
1.705223e+00 -1.197899e-06 0
1.705294e+00 2.905749e-04 0
1.705331e+00 6.609668e-04 0
1.705325e+00 1.120789e-03 0
1.705262e+00 1.682996e-03 0
1.705130e+00 2.362587e-03 0
1.704911e+00 3.176672e-03 0
1.704588e+00 4.144625e-03 0
1.704140e+00 5.288373e-03 0
1.703543e+00 6.632809e-03 0
1.702769e+00 8.206402e-03 0
1.701790e+00 1.004204e-02 0
1.700574e+00 1.217818e-02 0
1.699083e+00 1.466037e-02 0
1.697278e+00 1.754325e-02 0
1.695115e+00 2.089311e-02 0
1.692545e+00 2.479127e-02 0
1.689508e+00 2.933838e-02 0
1.685937e+00 3.466000e-02 0
1.681745e+00 4.091375e-02 0
1.676812e+00 4.829836e-02 0
1.670960e+00 5.706371e-02 0
1.663893e+00 6.751702e-02 0
1.655074e+00 8.000396e-02 0
1.643472e+00 9.478691e-02 0
1.627052e+00 1.115645e-01 0
1.601974e+00 1.279337e-01 0
1.562591e+00 1.356229e-01 0
1.514377e+00 1.218939e-01 0
1.492326e+00 9.332023e-02 0
1.484902e+00 6.692413e-02 0
1.483428e+00 4.674978e-02 0
1.483951e+00 3.212726e-02 0
1.484929e+00 2.160974e-02 0
1.485814e+00 1.399341e-02 0
1.486432e+00 8.434439e-03 0
1.486736e+00 4.378330e-03 0
1.486707e+00 1.451073e-03 0
1.486352e+00 -6.358377e-04 0
1.485713e+00 -2.083907e-03 0
1.484846e+00 -3.017627e-03 0
1.483807e+00 -3.534379e-03 0
1.482644e+00 -3.714716e-03 0
1.481393e+00 -3.626530e-03 0
1.480081e+00 -3.326741e-03 0
1.478727e+00 -2.861883e-03 0
1.477343e+00 -2.267654e-03 0
1.475932e+00 -1.570332e-03 0
1.474491e+00 -8.017207e-04 0
1.473024e+00 -5.989862e-06 0
1.471534e+00 7.925976e-04 0
1.470014e+00 1.593563e-03 0
1.468443e+00 2.388420e-03 0
1.466811e+00 3.164111e-03 0
1.465113e+00 3.914446e-03 0
1.463351e+00 4.633836e-03 0
1.461521e+00 5.316419e-03 0
1.459619e+00 5.959471e-03 0
1.457642e+00 6.562626e-03 0
1.455589e+00 7.126968e-03 0
1.453458e+00 7.654417e-03 0
1.451249e+00 8.147478e-03 0
1.448965e+00 8.608834e-03 0
1.446606e+00 9.040964e-03 0