<?xml version="1.0"?>
<VTKFile type="StructuredGrid">
<StructuredGrid WholeExtent="0 158 0 30 0 0 ">
<Piece Extent="0 158 0 30 0 0 ">
<Points>
<DataArray type="Float64" format="ascii" NumberOfComponents="3">
0.000000e+00 0.000000e+00 0.000000e+00
3.164557e-02 0.000000e+00 0.000000e+00
6.329114e-02 0.000000e+00 0.000000e+00
9.493671e-02 0.000000e+00 0.000000e+00
1.265823e-01 0.000000e+00 0.000000e+00
1.582278e-01 0.000000e+00 0.000000e+00
1.898734e-01 0.000000e+00 0.000000e+00
2.215190e-01 0.000000e+00 0.000000e+00
2.531646e-01 0.000000e+00 0.000000e+00
2.848101e-01 0.000000e+00 0.000000e+00
3.164557e-01 0.000000e+00 0.000000e+00
3.481013e-01 0.000000e+00 0.000000e+00
3.797468e-01 0.000000e+00 0.000000e+00
4.113924e-01 0.000000e+00 0.000000e+00
4.430380e-01 0.000000e+00 0.000000e+00
4.746835e-01 0.000000e+00 0.000000e+00
5.063291e-01 0.000000e+00 0.000000e+00
5.379747e-01 0.000000e+00 0.000000e+00
5.696203e-01 0.000000e+00 0.000000e+00
6.012658e-01 0.000000e+00 0.000000e+00
6.329114e-01 0.000000e+00 0.000000e+00
6.645570e-01 0.000000e+00 0.000000e+00
6.962025e-01 0.000000e+00 0.000000e+00
7.278481e-01 0.000000e+00 0.000000e+00
7.594937e-01 0.000000e+00 0.000000e+00
7.911392e-01 0.000000e+00 0.000000e+00
8.227848e-01 0.000000e+00 0.000000e+00
8.544304e-01 0.000000e+00 0.000000e+00
8.860759e-01 0.000000e+00 0.000000e+00
9.177215e-01 0.000000e+00 0.000000e+00
9.493671e-01 0.000000e+00 0.000000e+00
9.810127e-01 0.000000e+00 0.000000e+00
1.012658e+00 0.000000e+00 0.000000e+00
1.044304e+00 0.000000e+00 0.000000e+00
1.075949e+00 0.000000e+00 0.000000e+00
1.107595e+00 0.000000e+00 0.000000e+00
1.139241e+00 0.000000e+00 0.000000e+00
1.170886e+00 0.000000e+00 0.000000e+00
1.202532e+00 0.000000e+00 0.000000e+00
1.234177e+00 0.000000e+00 0.000000e+00
1.265823e+00 0.000000e+00 0.000000e+00
1.297468e+00 0.000000e+00 0.000000e+00
1.329114e+00 0.000000e+00 0.000000e+00
1.360759e+00 0.000000e+00 0.000000e+00
1.392405e+00 0.000000e+00 0.000000e+00
1.424051e+00 0.000000e+00 0.000000e+00
1.455696e+00 0.000000e+00 0.000000e+00
1.487342e+00 0.000000e+00 0.000000e+00
1.518987e+00 0.000000e+00 0.000000e+00
1.550633e+00 0.000000e+00 0.000000e+00
1.582278e+00 0.000000e+00 0.000000e+00
1.613924e+00 0.000000e+00 0.000000e+00
1.645570e+00 0.000000e+00 0.000000e+00
1.677215e+00 0.000000e+00 0.000000e+00
1.708861e+00 0.000000e+00 0.000000e+00
1.740506e+00 0.000000e+00 0.000000e+00
1.772152e+00 0.000000e+00 0.000000e+00
1.803797e+00 0.000000e+00 0.000000e+00
1.835443e+00 0.000000e+00 0.000000e+00
1.867089e+00 0.000000e+00 0.000000e+00
1.898734e+00 0.000000e+00 0.000000e+00
1.930380e+00 0.000000e+00 0.000000e+00
1.962025e+00 0.000000e+00 0.000000e+00
1.993671e+00 0.000000e+00 0.000000e+00
2.025316e+00 0.000000e+00 0.000000e+00
2.056962e+00 0.000000e+00 0.000000e+00
2.088608e+00 0.000000e+00 0.000000e+00
2.120253e+00 0.000000e+00 0.000000e+00
2.151899e+00 0.000000e+00 0.000000e+00
2.183544e+00 0.000000e+00 0.000000e+00
2.215190e+00 0.000000e+00 0.000000e+00
2.246835e+00 0.000000e+00 0.000000e+00
2.278481e+00 0.000000e+00 0.000000e+00
2.310127e+00 0.000000e+00 0.000000e+00
2.341772e+00 0.000000e+00 0.000000e+00
2.373418e+00 0.000000e+00 0.000000e+00
2.405063e+00 0.000000e+00 0.000000e+00
2.436709e+00 0.000000e+00 0.000000e+00
2.468354e+00 0.000000e+00 0.000000e+00
2.500000e+00 0.000000e+00 0.000000e+00
2.531646e+00 0.000000e+00 0.000000e+00
2.563291e+00 0.000000e+00 0.000000e+00
2.594937e+00 0.000000e+00 0.000000e+00
2.626582e+00 0.000000e+00 0.000000e+00
2.658228e+00 0.000000e+00 0.000000e+00
2.689873e+00 0.000000e+00 0.000000e+00
2.721519e+00 0.000000e+00 0.000000e+00
2.753165e+00 0.000000e+00 0.000000e+00
2.784810e+00 0.000000e+00 0.000000e+00
2.816456e+00 0.000000e+00 0.000000e+00
2.848101e+00 0.000000e+00 0.000000e+00
2.879747e+00 0.000000e+00 0.000000e+00
2.911392e+00 0.000000e+00 0.000000e+00
2.943038e+00 0.000000e+00 0.000000e+00
2.974684e+00 0.000000e+00 0.000000e+00
3.006329e+00 0.000000e+00 0.000000e+00
3.037975e+00 0.000000e+00 0.000000e+00
3.069620e+00 0.000000e+00 0.000000e+00
3.101266e+00 0.000000e+00 0.000000e+00
3.132911e+00 0.000000e+00 0.000000e+00
3.164557e+00 0.000000e+00 0.000000e+00
3.196203e+00 0.000000e+00 0.000000e+00
3.227848e+00 0.000000e+00 0.000000e+00
3.259494e+00 0.000000e+00 0.000000e+00
3.291139e+00 0.000000e+00 0.000000e+00
3.322785e+00 0.000000e+00 0.000000e+00
3.354430e+00 0.000000e+00 0.000000e+00
3.386076e+00 0.000000e+00 0.000000e+00
3.417722e+00 0.000000e+00 0.000000e+00
3.449367e+00 0.000000e+00 0.000000e+00
3.481013e+00 0.000000e+00 0.000000e+00
3.512658e+00 0.000000e+00 0.000000e+00
3.544304e+00 0.000000e+00 0.000000e+00
3.575949e+00 0.000000e+00 0.000000e+00
3.607595e+00 0.000000e+00 0.000000e+00
3.639241e+00 0.000000e+00 0.000000e+00
3.670886e+00 0.000000e+00 0.000000e+00
3.702532e+00 0.000000e+00 0.000000e+00
3.734177e+00 0.000000e+00 0.000000e+00
3.765823e+00 0.000000e+00 0.000000e+00
3.797468e+00 0.000000e+00 0.000000e+00
3.829114e+00 0.000000e+00 0.000000e+00
3.860759e+00 0.000000e+00 0.000000e+00
3.892405e+00 0.000000e+00 0.000000e+00
3.924051e+00 0.000000e+00 0.000000e+00
3.955696e+00 0.000000e+00 0.000000e+00
3.987342e+00 0.000000e+00 0.000000e+00
4.018987e+00 0.000000e+00 0.000000e+00
4.050633e+00 0.000000e+00 0.000000e+00
4.082278e+00 0.000000e+00 0.000000e+00
4.113924e+00 0.000000e+00 0.000000e+00
4.145570e+00 0.000000e+00 0.000000e+00
4.177215e+00 0.000000e+00 0.000000e+00
4.208861e+00 0.000000e+00 0.000000e+00
4.240506e+00 0.000000e+00 0.000000e+00
4.272152e+00 0.000000e+00 0.000000e+00
4.303797e+00 0.000000e+00 0.000000e+00
4.335443e+00 0.000000e+00 0.000000e+00
4.367089e+00 0.000000e+00 0.000000e+00
4.398734e+00 0.000000e+00 0.000000e+00
4.430380e+00 0.000000e+00 0.000000e+00
4.462025e+00 0.000000e+00 0.000000e+00
4.493671e+00 0.000000e+00 0.000000e+00
4.525316e+00 0.000000e+00 0.000000e+00
4.556962e+00 0.000000e+00 0.000000e+00
4.588608e+00 0.000000e+00 0.000000e+00
4.620253e+00 0.000000e+00 0.000000e+00
4.651899e+00 0.000000e+00 0.000000e+00
4.683544e+00 0.000000e+00 0.000000e+00
4.715190e+00 0.000000e+00 0.000000e+00
4.746835e+00 0.000000e+00 0.000000e+00
4.778481e+00 0.000000e+00 0.000000e+00
4.810127e+00 0.000000e+00 0.000000e+00
4.841772e+00 0.000000e+00 0.000000e+00
4.873418e+00 0.000000e+00 0.000000e+00
4.905063e+00 0.000000e+00 0.000000e+00
4.936709e+00 0.000000e+00 0.000000e+00
4.968354e+00 0.000000e+00 0.000000e+00
5.000000e+00 0.000000e+00 0.000000e+00
0.000000e+00 3.333333e-02 0.000000e+00
3.164557e-02 3.333333e-02 0.000000e+00
6.329114e-02 3.333333e-02 0.000000e+00
9.493671e-02 3.333333e-02 0.000000e+00
1.265823e-01 3.333333e-02 0.000000e+00
1.582278e-01 3.333333e-02 0.000000e+00
1.898734e-01 3.333333e-02 0.000000e+00
2.215190e-01 3.333333e-02 0.000000e+00
2.531646e-01 3.333333e-02 0.000000e+00
2.848101e-01 3.333333e-02 0.000000e+00
3.164557e-01 3.333333e-02 0.000000e+00
3.481013e-01 3.333333e-02 0.000000e+00
3.797468e-01 3.333333e-02 0.000000e+00
4.113924e-01 3.333333e-02 0.000000e+00
4.430380e-01 3.333333e-02 0.000000e+00
4.746835e-01 3.333333e-02 0.000000e+00
5.063291e-01 3.333333e-02 0.000000e+00
5.379747e-01 3.333333e-02 0.000000e+00
5.696203e-01 3.333333e-02 0.000000e+00
6.012658e-01 3.333333e-02 0.000000e+00
6.329114e-01 3.333333e-02 0.000000e+00
6.645570e-01 3.333333e-02 0.000000e+00
6.962025e-01 3.333333e-02 0.000000e+00
7.278481e-01 3.333333e-02 0.000000e+00
7.594937e-01 3.333333e-02 0.000000e+00
7.911392e-01 3.333333e-02 0.000000e+00
8.227848e-01 3.333333e-02 0.000000e+00
8.544304e-01 3.333333e-02 0.000000e+00
8.860759e-01 3.333333e-02 0.000000e+00
9.177215e-01 3.333333e-02 0.000000e+00
9.493671e-01 3.333333e-02 0.000000e+00
9.810127e-01 3.333333e-02 0.000000e+00
1.012658e+00 3.333333e-02 0.000000e+00
1.044304e+00 3.333333e-02 0.000000e+00
1.075949e+00 3.333333e-02 0.000000e+00
1.107595e+00 3.333333e-02 0.000000e+00
1.139241e+00 3.333333e-02 0.000000e+00
1.170886e+00 3.333333e-02 0.000000e+00
1.202532e+00 3.333333e-02 0.000000e+00
1.234177e+00 3.333333e-02 0.000000e+00
1.265823e+00 3.333333e-02 0.000000e+00
1.297468e+00 3.333333e-02 0.000000e+00
1.329114e+00 3.333333e-02 0.000000e+00
1.360759e+00 3.333333e-02 0.000000e+00
1.392405e+00 3.333333e-02 0.000000e+00
1.424051e+00 3.333333e-02 0.000000e+00
1.455696e+00 3.333333e-02 0.000000e+00
1.487342e+00 3.333333e-02 0.000000e+00
1.518987e+00 3.333333e-02 0.000000e+00
1.550633e+00 3.333333e-02 0.000000e+00
1.582278e+00 3.333333e-02 0.000000e+00
1.613924e+00 3.333333e-02 0.000000e+00
1.645570e+00 3.333333e-02 0.000000e+00
1.677215e+00 3.333333e-02 0.000000e+00
1.708861e+00 3.333333e-02 0.000000e+00
1.740506e+00 3.333333e-02 0.000000e+00
1.772152e+00 3.333333e-02 0.000000e+00
1.803797e+00 3.333333e-02 0.000000e+00
1.835443e+00 3.333333e-02 0.000000e+00
1.867089e+00 3.333333e-02 0.000000e+00
1.898734e+00 3.333333e-02 0.000000e+00
1.930380e+00 3.333333e-02 0.000000e+00
1.962025e+00 3.333333e-02 0.000000e+00
1.993671e+00 3.333333e-02 0.000000e+00
2.025316e+00 3.333333e-02 0.000000e+00
2.056962e+00 3.333333e-02 0.000000e+00
2.088608e+00 3.333333e-02 0.000000e+00
2.120253e+00 3.333333e-02 0.000000e+00
2.151899e+00 3.333333e-02 0.000000e+00
2.183544e+00 3.333333e-02 0.000000e+00
2.215190e+00 3.333333e-02 0.000000e+00
2.246835e+00 3.333333e-02 0.000000e+00
2.278481e+00 3.333333e-02 0.000000e+00
2.310127e+00 3.333333e-02 0.000000e+00
2.341772e+00 3.333333e-02 0.000000e+00
2.373418e+00 3.333333e-02 0.000000e+00
2.405063e+00 3.333333e-02 0.000000e+00
2.436709e+00 3.333333e-02 0.000000e+00
2.468354e+00 3.333333e-02 0.000000e+00
2.500000e+00 3.333333e-02 0.000000e+00
2.531646e+00 3.333333e-02 0.000000e+00
2.563291e+00 3.333333e-02 0.000000e+00
2.594937e+00 3.333333e-02 0.000000e+00
2.626582e+00 3.333333e-02 0.000000e+00
2.658228e+00 3.333333e-02 0.000000e+00
2.689873e+00 3.333333e-02 0.000000e+00
2.721519e+00 3.333333e-02 0.000000e+00
2.753165e+00 3.333333e-02 0.000000e+00
2.784810e+00 3.333333e-02 0.000000e+00
2.816456e+00 3.333333e-02 0.000000e+00
2.848101e+00 3.333333e-02 0.000000e+00
2.879747e+00 3.333333e-02 0.000000e+00
[...]
<PointData>
<DataArray Name="Velocity" type="Float64" format="ascii" NumberOfComponents="3">
0.000000e+00 0.000000e+00 0
0.000000e+00 0.000000e+00 0
0.000000e+00 0.000000e+00 0
0.000000e+00 0.000000e+00 0
0.000000e+00 0.000000e+00 0
0.000000e+00 0.000000e+00 0
0.000000e+00 0.000000e+00 0
0.000000e+00 0.000000e+00 0
0.000000e+00 0.000000e+00 0
0.000000e+00 0.000000e+00 0
0.000000e+00 0.000000e+00 0
0.000000e+00 0.000000e+00 0
0.000000e+00 0.000000e+00 0
0.000000e+00 0.000000e+00 0
0.000000e+00 0.000000e+00 0
0.000000e+00 0.000000e+00 0
0.000000e+00 0.000000e+00 0
0.000000e+00 0.000000e+00 0
0.000000e+00 0.000000e+00 0
-6.844842e-19 0.000000e+00 0
0.000000e+00 0.000000e+00 0
0.000000e+00 0.000000e+00 0
0.000000e+00 0.000000e+00 0
-1.952240e-18 0.000000e+00 0
0.000000e+00 0.000000e+00 0
0.000000e+00 0.000000e+00 0
0.000000e+00 0.000000e+00 0
-2.720517e-19 0.000000e+00 0
0.000000e+00 0.000000e+00 0
0.000000e+00 0.000000e+00 0
0.000000e+00 0.000000e+00 0
-4.643579e-18 0.000000e+00 0
0.000000e+00 0.000000e+00 0
0.000000e+00 0.000000e+00 0
0.000000e+00 0.000000e+00 0
0.000000e+00 0.000000e+00 0
0.000000e+00 0.000000e+00 0
0.000000e+00 0.000000e+00 0
2.687292e-17 0.000000e+00 0
0.000000e+00 0.000000e+00 0
0.000000e+00 0.000000e+00 0
0.000000e+00 0.000000e+00 0
0.000000e+00 0.000000e+00 0
0.000000e+00 0.000000e+00 0
0.000000e+00 0.000000e+00 0
0.000000e+00 0.000000e+00 0
5.700282e-18 0.000000e+00 0
0.000000e+00 0.000000e+00 0
0.000000e+00 0.000000e+00 0
0.000000e+00 0.000000e+00 0
0.000000e+00 0.000000e+00 0
0.000000e+00 0.000000e+00 0
0.000000e+00 0.000000e+00 0
0.000000e+00 0.000000e+00 0
-4.639632e-18 0.000000e+00 0
0.000000e+00 0.000000e+00 0
0.000000e+00 0.000000e+00 0
0.000000e+00 0.000000e+00 0
0.000000e+00 0.000000e+00 0
0.000000e+00 0.000000e+00 0
0.000000e+00 0.000000e+00 0
0.000000e+00 0.000000e+00 0
-2.748326e-18 0.000000e+00 0
0.000000e+00 0.000000e+00 0
0.000000e+00 0.000000e+00 0
0.000000e+00 0.000000e+00 0
0.000000e+00 0.000000e+00 0
0.000000e+00 0.000000e+00 0
0.000000e+00 0.000000e+00 0
0.000000e+00 0.000000e+00 0
0.000000e+00 0.000000e+00 0
0.000000e+00 0.000000e+00 0
0.000000e+00 0.000000e+00 0
0.000000e+00 0.000000e+00 0
0.000000e+00 0.000000e+00 0
0.000000e+00 0.000000e+00 0
0.000000e+00 0.000000e+00 0
0.000000e+00 0.000000e+00 0
0.000000e+00 0.000000e+00 0
0.000000e+00 0.000000e+00 0
0.000000e+00 0.000000e+00 0
0.000000e+00 0.000000e+00 0
0.000000e+00 0.000000e+00 0
0.000000e+00 0.000000e+00 0
0.000000e+00 0.000000e+00 0
0.000000e+00 0.000000e+00 0
0.000000e+00 0.000000e+00 0
0.000000e+00 0.000000e+00 0
0.000000e+00 0.000000e+00 0
0.000000e+00 0.000000e+00 0
0.000000e+00 0.000000e+00 0
0.000000e+00 0.000000e+00 0
0.000000e+00 0.000000e+00 0
0.000000e+00 0.000000e+00 0
0.000000e+00 0.000000e+00 0
0.000000e+00 0.000000e+00 0
0.000000e+00 0.000000e+00 0
0.000000e+00 0.000000e+00 0
0.000000e+00 0.000000e+00 0
0.000000e+00 0.000000e+00 0
0.000000e+00 0.000000e+00 0
0.000000e+00 0.000000e+00 0
0.000000e+00 0.000000e+00 0
0.000000e+00 0.000000e+00 0
0.000000e+00 0.000000e+00 0
0.000000e+00 0.000000e+00 0
0.000000e+00 0.000000e+00 0
0.000000e+00 0.000000e+00 0
0.000000e+00 0.000000e+00 0
0.000000e+00 0.000000e+00 0
0.000000e+00 0.000000e+00 0
0.000000e+00 0.000000e+00 0
0.000000e+00 0.000000e+00 0
0.000000e+00 0.000000e+00 0
0.000000e+00 0.000000e+00 0
0.000000e+00 0.000000e+00 0
0.000000e+00 0.000000e+00 0
0.000000e+00 0.000000e+00 0
0.000000e+00 0.000000e+00 0
0.000000e+00 0.000000e+00 0
0.000000e+00 0.000000e+00 0
0.000000e+00 0.000000e+00 0
0.000000e+00 0.000000e+00 0
0.000000e+00 0.000000e+00 0
0.000000e+00 0.000000e+00 0
0.000000e+00 0.000000e+00 0
0.000000e+00 0.000000e+00 0
0.000000e+00 0.000000e+00 0
0.000000e+00 0.000000e+00 0
0.000000e+00 0.000000e+00 0
0.000000e+00 0.000000e+00 0
0.000000e+00 0.000000e+00 0
0.000000e+00 0.000000e+00 0
0.000000e+00 0.000000e+00 0
0.000000e+00 0.000000e+00 0
0.000000e+00 0.000000e+00 0
0.000000e+00 0.000000e+00 0
0.000000e+00 0.000000e+00 0
0.000000e+00 0.000000e+00 0
0.000000e+00 0.000000e+00 0
0.000000e+00 0.000000e+00 0
0.000000e+00 0.000000e+00 0
0.000000e+00 0.000000e+00 0
0.000000e+00 0.000000e+00 0
0.000000e+00 0.000000e+00 0
0.000000e+00 0.000000e+00 0
0.000000e+00 0.000000e+00 0
0.000000e+00 0.000000e+00 0
0.000000e+00 0.000000e+00 0
0.000000e+00 0.000000e+00 0
0.000000e+00 0.000000e+00 0
0.000000e+00 0.000000e+00 0
0.000000e+00 0.000000e+00 0
0.000000e+00 0.000000e+00 0
0.000000e+00 0.000000e+00 0
0.000000e+00 0.000000e+00 0
0.000000e+00 0.000000e+00 0
0.000000e+00 0.000000e+00 0
0.000000e+00 0.000000e+00 0
4.134941e-01 4.952527e-05 0
4.134941e-01 7.024139e-05 0
4.134165e-01 1.318860e-04 0
4.132610e-01 2.375332e-04 0
4.129811e-01 3.933200e-04 0
4.125265e-01 6.045914e-04 0
4.118416e-01 8.775299e-04 0
4.108641e-01 1.219705e-03 0
4.095235e-01 1.640356e-03 0
4.077393e-01 2.150608e-03 0
4.054191e-01 2.763705e-03 0
4.024563e-01 3.495263e-03 0
3.987276e-01 4.363545e-03 0
3.940903e-01 5.389760e-03 0
3.883788e-01 6.598347e-03 0
3.814015e-01 8.017193e-03 0
3.729364e-01 9.677704e-03 0
3.627274e-01 1.161457e-02 0
3.504802e-01 1.386501e-02 0
3.358589e-01 1.646727e-02 0
3.184836e-01 1.945786e-02 0
2.979307e-01 2.286721e-02 0
2.737370e-01 2.671375e-02 0
2.454079e-01 3.099828e-02 0
2.124311e-01 3.571170e-02 0
1.742910e-01 4.093967e-02 0
1.304760e-01 4.783123e-02 0
8.059480e-02 5.319764e-02 0
2.586413e-02 5.009321e-02 0
-3.245913e-02 4.932250e-02 0
-9.847691e-02 6.243763e-02 0
-1.702760e-01 7.541119e-02 0
-2.440457e-01 7.921143e-02 0
-3.178711e-01 7.740139e-02 0
-3.862177e-01 7.146179e-02 0
-4.466248e-01 6.295500e-02 0
-4.976416e-01 5.276206e-02 0
-5.382353e-01 4.119067e-02 0
-5.672864e-01 2.812627e-02 0
-5.832609e-01 1.321940e-02 0
-5.841351e-01 -3.963667e-03 0
-5.679720e-01 -2.225181e-02 0
-5.356803e-01 -3.960887e-02 0
-4.887425e-01 -5.496500e-02 0
-4.293447e-01 -6.755630e-02 0
-3.602546e-01 -7.684998e-02 0
-2.850209e-01 -8.323166e-02 0
-2.054929e-01 -8.662153e-02 0
-1.244619e-01 -8.680232e-02 0
-4.363747e-02 -8.716591e-02 0
3.297764e-02 -8.704708e-02 0
1.049212e-01 -8.037454e-02 0
1.710444e-01 -7.059922e-02 0
2.312605e-01 -6.296535e-02 0
2.858120e-01 -5.643929e-02 0
3.350118e-01 -5.052792e-02 0
3.791874e-01 -4.505988e-02 0
4.186683e-01 -3.997113e-02 0
4.537768e-01 -3.522527e-02 0
4.848183e-01 -3.078721e-02 0
5.120717e-01 -2.661561e-02 0
5.357806e-01 -2.266205e-02 0
5.561476e-01 -1.887302e-02 0
5.733300e-01 -1.519440e-02 0
5.874395e-01 -1.157983e-02 0
5.985462e-01 -8.007649e-03 0
6.066871e-01 -4.522416e-03 0
6.118749e-01 -1.274540e-03 0
6.141022e-01 1.774448e-03 0
6.134238e-01 4.803852e-03 0
6.098135e-01 7.834408e-03 0
6.032463e-01 1.083102e-02 0
5.937204e-01 1.374539e-02 0
5.812774e-01 1.650813e-02 0
5.660225e-01 1.902971e-02 0
5.481423e-01 2.120661e-02 0
5.279150e-01 2.293256e-02 0
5.057127e-01 2.411481e-02 0
4.819942e-01 2.469374e-02 0
4.572885e-01 2.466093e-02 0
4.321719e-01 2.406749e-02 0
4.072403e-01 2.301508e-02 0
3.830785e-01 2.162913e-02 0
3.602255e-01 2.002492e-02 0
3.391376e-01 1.828274e-02 0
3.201585e-01 1.644232e-02 0
3.035080e-01 1.451402e-02 0
2.892956e-01 1.249639e-02 0
2.775508e-01 1.038775e-02 0
2.682539e-01 8.182368e-03 0
2.613534e-01 5.859053e-03 0
2.567575e-01 3.404617e-03 0
2.542990e-01 9.397268e-04 0
2.537235e-01 -1.170489e-03 0
2.547224e-01 -2.698847e-03 0
2.569816e-01 -3.742470e-03 0
2.602323e-01 -4.432236e-03 0
2.642258e-01 -4.851310e-03 0
2.687227e-01 -5.047761e-03 0
2.734945e-01 -5.055879e-03 0
2.783332e-01 -4.908703e-03 0
2.830626e-01 -4.641773e-03 0
2.875453e-01 -4.291804e-03 0
2.916852e-01 -3.893581e-03 0
2.954258e-01 -3.477090e-03 0
2.987440e-01 -3.065816e-03 0
3.016425e-01 -2.676311e-03 0
3.041425e-01 -2.318788e-03 0
3.062765e-01 -1.998283e-03 0
3.080828e-01 -1.716011e-03 0
3.096015e-01 -1.470646e-03 0
3.108718e-01 -1.259365e-03 0
3.119301e-01 -1.078623e-03 0
3.128092e-01 -9.246758e-04 0
3.135382e-01 -7.938975e-04 0
3.141420e-01 -6.829512e-04 0
3.146422e-01 -5.888648e-04 0
3.150568e-01 -5.090461e-04 0
3.154009e-01 -4.412664e-04 0
3.156872e-01 -3.836284e-04 0
3.159260e-01 -3.345255e-04 0
3.161260e-01 -2.926033e-04 0
3.162941e-01 -2.567242e-04 0
3.164361e-01 -2.259348e-04 0
3.165567e-01 -1.994365e-04 0
3.166597e-01 -1.765607e-04 0
3.167481e-01 -1.567481e-04 0
3.168245e-01 -1.395309e-04 0
3.168909e-01 -1.245173e-04 0
3.169489e-01 -1.113791e-04 0
3.170000e-01 -9.984154e-05 0
3.170452e-01 -8.967428e-05 0
3.170854e-01 -8.068385e-05 0
3.171213e-01 -7.270739e-05 0
3.171536e-01 -6.560748e-05 0
3.171826e-01 -5.926791e-05 0
3.172089e-01 -5.359007e-05 0
3.172327e-01 -4.848994e-05 0
3.172543e-01 -4.389568e-05 0
3.172740e-01 -3.974568e-05 0
3.172920e-01 -3.598692e-05 0
3.173083e-01 -3.257347e-05 0
3.173232e-01 -2.946517e-05 0
3.173368e-01 -2.662670e-05 0
3.173491e-01 -2.402675e-05 0
3.173603e-01 -2.163724e-05 0
3.173704e-01 -1.943259e-05 0
3.173794e-01 -1.738902e-05 0
3.173875e-01 -1.548389e-05 0
3.173946e-01 -1.369485e-05 0
3.174009e-01 -1.199866e-05 0
3.174062e-01 -1.036962e-05 0
3.174106e-01 -8.777156e-06 0
3.174141e-01 -7.182033e-06 0
3.174166e-01 -5.530850e-06 0
3.174180e-01 -3.750365e-06 0
3.174182e-01 -1.821042e-06 0
3.174168e-01 1.478688e-06 0
3.174168e-01 3.782210e-06 0
5.459220e-01 9.114191e-05 0
5.459220e-01 1.272801e-04 0
5.458673e-01 2.455457e-04 0
5.457480e-01 4.586318e-04 0
5.455235e-01 7.736048e-04 0
5.451505e-01 1.200228e-03 0
5.445812e-01 1.751048e-03 0
5.437620e-01 2.441734e-03 0
5.426316e-01 3.291459e-03 0
5.411198e-01 4.323316e-03 0
5.391452e-01 5.564809e-03 0
5.366137e-01 7.048416e-03 0
5.334155e-01 8.812244e-03 0
5.294224e-01 1.090076e-02 0
5.244848e-01 1.336555e-02 0
5.184274e-01 1.626603e-02 0
5.110445e-01 1.967002e-02 0
5.020950e-01 2.365380e-02 0
4.912958e-01 2.830151e-02 0
4.783154e-01 3.370318e-02 0
4.627663e-01 3.995102e-02 0
4.441984e-01 4.713304e-02 0
4.220921e-01 5.532411e-02 0
3.958563e-01 6.457561e-02 0
3.648323e-01 7.490973e-02 0
3.283261e-01 8.632604e-02 0
2.857678e-01 9.869341e-02 0
2.378128e-01 1.101912e-01 0
1.816867e-01 1.190835e-01 0
1.120745e-01 1.309726e-01 0
3.541419e-02 1.451672e-01 0
-4.067219e-02 1.533325e-01 0
-1.176323e-01 1.554669e-01 0
-1.869497e-01 1.497547e-01 0
-2.451475e-01 1.356208e-01 0
-2.937572e-01 1.173666e-01 0
-3.326066e-01 9.649652e-02 0
-3.618627e-01 7.335937e-02 0
-3.811861e-01 4.742717e-02 0
-3.893193e-01 1.774744e-02 0
-3.834703e-01 -1.610411e-02 0
-3.618798e-01 -5.103875e-02 0
-3.265608e-01 -8.345488e-02 0
-2.789716e-01 -1.120066e-01 0
-2.211023e-01 -1.353402e-01 0
-1.551318e-01 -1.520208e-01 0
-8.396792e-02 -1.630154e-01 0
-1.209878e-02 -1.691218e-01 0
5.911547e-02 -1.704874e-01 0
1.285047e-01 -1.658360e-01 0
1.921363e-01 -1.564814e-01 0
2.504943e-01 -1.454300e-01 0
3.068865e-01 -1.330770e-01 0
3.596153e-01 -1.208882e-01 0
4.080194e-01 -1.092843e-01 0
4.520057e-01 -9.835497e-02 0
4.917168e-01 -8.811769e-02 0
5.273907e-01 -7.856703e-02 0
5.593007e-01 -6.967763e-02 0
5.877250e-01 -6.140354e-02 0
6.129303e-01 -5.367985e-02 0
6.351609e-01 -4.642618e-02 0
6.546316e-01 -3.955152e-02 0
6.715229e-01 -3.296035e-02 0
6.859772e-01 -2.656064e-02 0
6.980930e-01 -2.027367e-02 0
7.079125e-01 -1.403904e-02 0
7.153834e-01 -7.810028e-03 0
7.203115e-01 -1.631008e-03 0
7.226368e-01 4.517944e-03 0
7.223390e-01 1.072084e-02 0
7.193429e-01 1.695184e-02 0
7.135561e-01 2.314105e-02 0
7.048988e-01 2.917568e-02 0
6.933237e-01 3.490279e-02 0
6.788339e-01 4.014036e-02 0
6.614987e-01 4.469298e-02 0
6.414674e-01 4.837046e-02 0
6.189823e-01 5.100741e-02 0
5.943900e-01 5.248001e-02 0
5.681505e-01 5.271792e-02 0
5.408383e-01 5.171221e-02 0
5.131252e-01 4.952281e-02 0
4.857408e-01 4.628492e-02 0
4.594147e-01 4.220433e-02 0
4.348163e-01 3.753034e-02 0
4.125059e-01 3.250942e-02 0
3.929018e-01 2.734202e-02 0
3.762601e-01 2.216441e-02 0
3.626672e-01 1.706179e-02 0
3.520431e-01 1.211003e-02 0
3.441528e-01 7.431074e-03 0
3.386485e-01 3.196317e-03 0
3.352136e-01 -4.454824e-04 0
3.337385e-01 -3.431500e-03 0
3.340106e-01 -5.803305e-03 0
3.357595e-01 -7.630073e-03 0
3.387055e-01 -8.942802e-03 0
3.425479e-01 -9.762553e-03 0
3.469780e-01 -1.012269e-02 0
3.517013e-01 -1.007807e-02 0
3.564586e-01 -9.702905e-03 0
3.610405e-01 -9.082022e-03 0
3.652943e-01 -8.300489e-03 0
3.691229e-01 -7.434889e-03 0
3.724779e-01 -6.547863e-03 0
3.753500e-01 -5.686052e-03 0
3.777579e-01 -4.880725e-03 0
3.797385e-01 -4.150043e-03 0
3.813385e-01 -3.502015e-03 0
3.826084e-01 -2.937440e-03 0
3.835981e-01 -2.452441e-03 0
3.843543e-01 -2.040435e-03 0
3.849190e-01 -1.693553e-03 0
3.853289e-01 -1.403592e-03 0
3.856155e-01 -1.162602e-03 0
3.858053e-01 -9.632278e-04 0
3.859201e-01 -7.988695e-04 0
3.859778e-01 -6.637397e-04 0
3.859929e-01 -5.528496e-04 0
3.859768e-01 -4.619528e-04 0
3.859388e-01 -3.874739e-04 0
3.858858e-01 -3.264320e-04 0
3.858233e-01 -2.763582e-04 0
3.857554e-01 -2.352179e-04 0
3.856853e-01 -2.013430e-04 0
3.856153e-01 -1.733715e-04 0
3.855469e-01 -1.501939e-04 0
3.854813e-01 -1.309079e-04 0
3.854193e-01 -1.147821e-04 0
3.853612e-01 -1.012255e-04 0
3.853074e-01 -8.976062e-05 0
3.852578e-01 -8.000166e-05 0
3.852125e-01 -7.163680e-05 0
3.851713e-01 -6.441410e-05 0
3.851339e-01 -5.813002e-05 0
3.851003e-01 -5.262008e-05 0
3.850700e-01 -4.775126e-05 0
3.850428e-01 -4.341584e-05 0
3.850186e-01 -3.952637e-05 0
3.849969e-01 -3.601137e-05 0
3.849776e-01 -3.281203e-05 0
3.849604e-01 -2.987971e-05 0
3.849451e-01 -2.717381e-05 0
3.849315e-01 -2.465991e-05 0
3.849194e-01 -2.230822e-05 0
3.849086e-01 -2.009235e-05 0
3.848989e-01 -1.798810e-05 0
3.848901e-01 -1.597230e-05 0
3.848822e-01 -1.402144e-05 0
3.848750e-01 -1.211005e-05 0
3.848683e-01 -1.020861e-05 0
3.848620e-01 -8.280297e-06 0
3.848560e-01 -6.275808e-06 0
3.848502e-01 -4.124080e-06 0
3.848444e-01 -1.706578e-06 0
3.848386e-01 1.224164e-06 0
3.848324e-01 5.974681e-06 0
3.848324e-01 9.088668e-06 0
5.888257e-01 1.145321e-04 0
5.888257e-01 1.603254e-04 0
5.888003e-01 3.151658e-04 0
5.887327e-01 5.997481e-04 0
5.885946e-01 1.022746e-03 0
5.883554e-01 1.597115e-03 0
5.879814e-01 2.340054e-03 0
5.874347e-01 3.273285e-03 0
5.866715e-01 4.423498e-03 0
5.856416e-01 5.822932e-03 0
5.842867e-01 7.510088e-03 0
5.825390e-01 9.530615e-03 0
5.803193e-01 1.193837e-02 0
5.775349e-01 1.479667e-02 0
5.740770e-01 1.817976e-02 0
5.698176e-01 2.217434e-02 0
5.646048e-01 2.688120e-02 0
5.582581e-01 3.241657e-02 0
5.505612e-01 3.891286e-02 0
5.412531e-01 4.651829e-02 0
5.300178e-01 5.539446e-02 0
5.164700e-01 6.571074e-02 0
5.001397e-01 7.763408e-02 0
4.804557e-01 9.131196e-02 0
4.567333e-01 1.068435e-01 0
4.281809e-01 1.242210e-01 0
3.939493e-01 1.431719e-01 0
3.531390e-01 1.628297e-01 0
3.034993e-01 1.825376e-01 0
2.430475e-01 2.033963e-01 0
1.757589e-01 2.233308e-01 0
1.022641e-01 2.366202e-01 0
2.556205e-02 2.332904e-01 0
-4.087542e-02 2.117174e-01 0
-8.785785e-02 1.839658e-01 0
-1.186917e-01 1.550786e-01 0
-1.384514e-01 1.244999e-01 0
-1.500938e-01 9.236119e-02 0
-1.552142e-01 5.704730e-02 0
-1.577772e-01 1.562555e-02 0
-1.436212e-01 -3.286642e-02 0
-1.176657e-01 -8.219641e-02 0
-8.109155e-02 -1.269388e-01 0
-3.553483e-02 -1.660479e-01 0
1.689019e-02 -1.980007e-01 0
7.382024e-02 -2.212980e-01 0
1.333999e-01 -2.338930e-01 0
1.923171e-01 -2.373359e-01 0
2.492670e-01 -2.349045e-01 0
3.027958e-01 -2.272811e-01 0
3.544738e-01 -2.155427e-01 0
4.031300e-01 -2.012445e-01 0
4.489277e-01 -1.855398e-01 0
4.915237e-01 -1.694919e-01 0
5.306577e-01 -1.537571e-01 0
5.662701e-01 -1.386890e-01 0
5.984497e-01 -1.244652e-01 0
6.273702e-01 -1.111593e-01 0
6.532467e-01 -9.877719e-02 0
6.763084e-01 -8.727689e-02 0
6.967814e-01 -7.658120e-02 0
7.148780e-01 -6.658718e-02 0
7.307884e-01 -5.717420e-02 0
7.446750e-01 -4.821163e-02 0
7.566670e-01 -3.956671e-02 0
7.668546e-01 -3.111257e-02 0
7.752815e-01 -2.273476e-02 0
7.819422e-01 -1.433460e-02 0
7.867870e-01 -5.865587e-03 0
7.896622e-01 2.668373e-03 0
7.905093e-01 1.130416e-02 0
7.892358e-01 2.008257e-02 0
7.857214e-01 2.896007e-02 0
7.798333e-01 3.781978e-02 0
7.714396e-01 4.648488e-02 0
7.604253e-01 5.472921e-02 0
7.467088e-01 6.229221e-02 0
7.302604e-01 6.889894e-02 0
7.111218e-01 7.428216e-02 0
6.894229e-01 7.820393e-02 0
6.653938e-01 8.047546e-02 0
6.393690e-01 8.097533e-02 0
6.117833e-01 7.966543e-02 0
5.831623e-01 7.660020e-02 0
5.541117e-01 7.192343e-02 0
5.253005e-01 6.585309e-02 0
4.974282e-01 5.866408e-02 0
4.711730e-01 5.067552e-02 0
4.471312e-01 4.223514e-02 0
4.257696e-01 3.369115e-02 0
4.074026e-01 2.536102e-02 0
3.922002e-01 1.751376e-02 0
3.802242e-01 1.035590e-02 0
3.714522e-01 4.001541e-03 0
3.657763e-01 -1.431458e-03 0
3.629648e-01 -5.870972e-03 0
3.624952e-01 -9.377398e-03 0
3.638272e-01 -1.200167e-02 0
3.664968e-01 -1.376125e-02 0
3.700754e-01 -1.469724e-02 0
3.741698e-01 -1.489472e-02 0
3.784380e-01 -1.447886e-02 0
3.826037e-01 -1.359860e-02 0
3.864642e-01 -1.240689e-02 0
3.898892e-01 -1.104368e-02 0
3.928129e-01 -9.624902e-03 0
3.952208e-01 -8.237741e-03 0
3.971354e-01 -6.941149e-03 0
3.986027e-01 -5.769685e-03 0
3.996807e-01 -4.738869e-03 0
4.004313e-01 -3.850662e-03 0
4.009144e-01 -3.098251e-03 0
4.011846e-01 -2.469793e-03 0
4.012893e-01 -1.951101e-03 0
4.012689e-01 -1.527435e-03 0
4.011565e-01 -1.184595e-03 0
4.009788e-01 -9.095367e-04 0
4.007572e-01 -6.906511e-04 0
4.005080e-01 -5.178530e-04 0
4.002441e-01 -3.825374e-04 0
3.999751e-01 -2.774565e-04 0
3.997079e-01 -1.965811e-04 0
3.994477e-01 -1.349565e-04 0
3.991981e-01 -8.853920e-05 0
3.989614e-01 -5.405150e-05 0
3.987390e-01 -2.885593e-05 0
3.985316e-01 -1.084170e-05 0
3.983395e-01 1.669720e-06 0
3.981624e-01 1.000374e-05 0
3.979999e-01 1.520378e-05 0
3.978514e-01 1.808864e-05 0
3.977161e-01 1.929550e-05 0
3.975931e-01 1.931657e-05 0
3.974818e-01 1.852907e-05 0
3.973811e-01 1.721948e-05 0
3.972902e-01 1.560312e-05 0
3.972083e-01 1.383971e-05 0
3.971347e-01 1.204582e-05 0
3.970685e-01 1.030478e-05 0
3.970092e-01 8.674449e-06 0
3.969559e-01 7.193435e-06 0
3.969082e-01 5.885956e-06 0
3.968655e-01 4.765793e-06 0
3.968272e-01 3.839352e-06 0
3.967929e-01 3.108071e-06 0
3.967622e-01 2.570355e-06 0
3.967347e-01 2.223208e-06 0
3.967100e-01 2.063634e-06 0
3.966878e-01 2.089932e-06 0
3.966678e-01 2.303031e-06 0
3.966497e-01 2.708106e-06 0
3.966333e-01 3.316744e-06 0
3.966183e-01 4.150169e-06 0
3.966047e-01 5.244553e-06 0
3.965921e-01 6.660622e-06 0
3.965804e-01 8.500839e-06 0
3.965695e-01 1.089960e-05 0
3.965596e-01 1.451700e-05 0
3.965596e-01 1.677789e-05 0
6.095872e-01 1.127153e-04 0
6.095872e-01 1.647534e-04 0
6.095933e-01 3.434366e-04 0
6.095713e-01 6.753723e-04 0
6.095014e-01 1.171087e-03 0
6.093619e-01 1.846054e-03 0
6.091287e-01 2.720866e-03 0
6.087743e-01 3.821576e-03 0
6.082675e-01 5.180181e-03 0
6.075720e-01 6.835277e-03 0
6.066462e-01 8.832877e-03 0
6.054419e-01 1.122746e-02 0
6.039036e-01 1.408326e-02 0
6.019675e-01 1.747592e-02 0
5.995599e-01 2.149441e-02 0
5.965957e-01 2.624341e-02 0
5.929757e-01 3.184598e-02 0
5.885834e-01 3.844646e-02 0
5.832800e-01 4.621343e-02 0
5.768972e-01 5.534219e-02 0
5.692263e-01 6.605595e-02 0
5.600039e-01 7.860468e-02 0
5.488902e-01 9.325920e-02 0
5.354404e-01 1.102970e-01 0
5.190678e-01 1.299725e-01 0
4.989962e-01 1.524586e-01 0
4.741926e-01 1.777375e-01 0
4.432296e-01 2.054651e-01 0
4.040246e-01 2.350465e-01 0
3.547073e-01 2.655258e-01 0
2.955195e-01 2.934590e-01 0
2.268151e-01 3.115399e-01 0
1.530702e-01 3.062406e-01 0
8.477706e-02 2.692237e-01 0
5.123485e-02 2.175873e-01 0
4.146406e-02 1.706585e-01 0
4.382287e-02 1.295735e-01 0
5.238292e-02 9.101623e-02 0
6.384606e-02 5.552042e-02 0
7.966881e-02 5.536243e-03 0
1.030039e-01 -5.835483e-02 0
1.326821e-01 -1.169032e-01 0
1.696507e-01 -1.699659e-01 0
2.121527e-01 -2.152139e-01 0
2.577535e-01 -2.505275e-01 0
3.039760e-01 -2.747442e-01 0
3.494482e-01 -2.878319e-01 0
3.944818e-01 -2.911684e-01 0
4.378761e-01 -2.868582e-01 0
4.788173e-01 -2.766536e-01 0
5.173537e-01 -2.621667e-01 0
5.533461e-01 -2.449212e-01 0
5.868333e-01 -2.261849e-01 0
6.177811e-01 -2.069769e-01 0
6.461529e-01 -1.880170e-01 0
6.719687e-01 -1.697623e-01 0
6.953107e-01 -1.524763e-01 0
7.163080e-01 -1.362864e-01 0
7.351181e-01 -1.212257e-01 0
7.519122e-01 -1.072600e-01 0
7.668633e-01 -9.430635e-02 0
7.801376e-01 -8.224662e-02 0
7.918872e-01 -7.093741e-02 0