<?xml version="1.0"?>
<VTKFile type="StructuredGrid">
<StructuredGrid WholeExtent="0 158 0 30 0 0 ">
<Piece Extent="0 158 0 30 0 0 ">
<Points>
<DataArray type="Float64" format="ascii" NumberOfComponents="3">
0.000000e+00 0.000000e+00 0.000000e+00
3.164557e-02 0.000000e+00 0.000000e+00
6.329114e-02 0.000000e+00 0.000000e+00
9.493671e-02 0.000000e+00 0.000000e+00
1.265823e-01 0.000000e+00 0.000000e+00
1.582278e-01 0.000000e+00 0.000000e+00
1.898734e-01 0.000000e+00 0.000000e+00
2.215190e-01 0.000000e+00 0.000000e+00
2.531646e-01 0.000000e+00 0.000000e+00
2.848101e-01 0.000000e+00 0.000000e+00
3.164557e-01 0.000000e+00 0.000000e+00
3.481013e-01 0.000000e+00 0.000000e+00
3.797468e-01 0.000000e+00 0.000000e+00
4.113924e-01 0.000000e+00 0.000000e+00
4.430380e-01 0.000000e+00 0.000000e+00
4.746835e-01 0.000000e+00 0.000000e+00
5.063291e-01 0.000000e+00 0.000000e+00
5.379747e-01 0.000000e+00 0.000000e+00
5.696203e-01 0.000000e+00 0.000000e+00
6.012658e-01 0.000000e+00 0.000000e+00
6.329114e-01 0.000000e+00 0.000000e+00
6.645570e-01 0.000000e+00 0.000000e+00
6.962025e-01 0.000000e+00 0.000000e+00
7.278481e-01 0.000000e+00 0.000000e+00
7.594937e-01 0.000000e+00 0.000000e+00
7.911392e-01 0.000000e+00 0.000000e+00
8.227848e-01 0.000000e+00 0.000000e+00
8.544304e-01 0.000000e+00 0.000000e+00
8.860759e-01 0.000000e+00 0.000000e+00
9.177215e-01 0.000000e+00 0.000000e+00
9.493671e-01 0.000000e+00 0.000000e+00
9.810127e-01 0.000000e+00 0.000000e+00
1.012658e+00 0.000000e+00 0.000000e+00
1.044304e+00 0.000000e+00 0.000000e+00
1.075949e+00 0.000000e+00 0.000000e+00
1.107595e+00 0.000000e+00 0.000000e+00
1.139241e+00 0.000000e+00 0.000000e+00
1.170886e+00 0.000000e+00 0.000000e+00
1.202532e+00 0.000000e+00 0.000000e+00
1.234177e+00 0.000000e+00 0.000000e+00
1.265823e+00 0.000000e+00 0.000000e+00
1.297468e+00 0.000000e+00 0.000000e+00
1.329114e+00 0.000000e+00 0.000000e+00
1.360759e+00 0.000000e+00 0.000000e+00
1.392405e+00 0.000000e+00 0.000000e+00
1.424051e+00 0.000000e+00 0.000000e+00
1.455696e+00 0.000000e+00 0.000000e+00
1.487342e+00 0.000000e+00 0.000000e+00
1.518987e+00 0.000000e+00 0.000000e+00
1.550633e+00 0.000000e+00 0.000000e+00
1.582278e+00 0.000000e+00 0.000000e+00
1.613924e+00 0.000000e+00 0.000000e+00
1.645570e+00 0.000000e+00 0.000000e+00
1.677215e+00 0.000000e+00 0.000000e+00
1.708861e+00 0.000000e+00 0.000000e+00
1.740506e+00 0.000000e+00 0.000000e+00
1.772152e+00 0.000000e+00 0.000000e+00
1.803797e+00 0.000000e+00 0.000000e+00
1.835443e+00 0.000000e+00 0.000000e+00
1.867089e+00 0.000000e+00 0.000000e+00
1.898734e+00 0.000000e+00 0.000000e+00
1.930380e+00 0.000000e+00 0.000000e+00
1.962025e+00 0.000000e+00 0.000000e+00
1.993671e+00 0.000000e+00 0.000000e+00
2.025316e+00 0.000000e+00 0.000000e+00
2.056962e+00 0.000000e+00 0.000000e+00
2.088608e+00 0.000000e+00 0.000000e+00
2.120253e+00 0.000000e+00 0.000000e+00
2.151899e+00 0.000000e+00 0.000000e+00
2.183544e+00 0.000000e+00 0.000000e+00
2.215190e+00 0.000000e+00 0.000000e+00
2.246835e+00 0.000000e+00 0.000000e+00
2.278481e+00 0.000000e+00 0.000000e+00
2.310127e+00 0.000000e+00 0.000000e+00
2.341772e+00 0.000000e+00 0.000000e+00
2.373418e+00 0.000000e+00 0.000000e+00
2.405063e+00 0.000000e+00 0.000000e+00
2.436709e+00 0.000000e+00 0.000000e+00
2.468354e+00 0.000000e+00 0.000000e+00
2.500000e+00 0.000000e+00 0.000000e+00
2.531646e+00 0.000000e+00 0.000000e+00
2.563291e+00 0.000000e+00 0.000000e+00
2.594937e+00 0.000000e+00 0.000000e+00
2.626582e+00 0.000000e+00 0.000000e+00
2.658228e+00 0.000000e+00 0.000000e+00
2.689873e+00 0.000000e+00 0.000000e+00
2.721519e+00 0.000000e+00 0.000000e+00
2.753165e+00 0.000000e+00 0.000000e+00
2.784810e+00 0.000000e+00 0.000000e+00
2.816456e+00 0.000000e+00 0.000000e+00
2.848101e+00 0.000000e+00 0.000000e+00
2.879747e+00 0.000000e+00 0.000000e+00
2.911392e+00 0.000000e+00 0.000000e+00
2.943038e+00 0.000000e+00 0.000000e+00
2.974684e+00 0.000000e+00 0.000000e+00
3.006329e+00 0.000000e+00 0.000000e+00
3.037975e+00 0.000000e+00 0.000000e+00
3.069620e+00 0.000000e+00 0.000000e+00
3.101266e+00 0.000000e+00 0.000000e+00
3.132911e+00 0.000000e+00 0.000000e+00
3.164557e+00 0.000000e+00 0.000000e+00
3.196203e+00 0.000000e+00 0.000000e+00
3.227848e+00 0.000000e+00 0.000000e+00
3.259494e+00 0.000000e+00 0.000000e+00
3.291139e+00 0.000000e+00 0.000000e+00
3.322785e+00 0.000000e+00 0.000000e+00
3.354430e+00 0.000000e+00 0.000000e+00
3.386076e+00 0.000000e+00 0.000000e+00
3.417722e+00 0.000000e+00 0.000000e+00
3.449367e+00 0.000000e+00 0.000000e+00
3.481013e+00 0.000000e+00 0.000000e+00
3.512658e+00 0.000000e+00 0.000000e+00
3.544304e+00 0.000000e+00 0.000000e+00
3.575949e+00 0.000000e+00 0.000000e+00
3.607595e+00 0.000000e+00 0.000000e+00
3.639241e+00 0.000000e+00 0.000000e+00
3.670886e+00 0.000000e+00 0.000000e+00
3.702532e+00 0.000000e+00 0.000000e+00
3.734177e+00 0.000000e+00 0.000000e+00
3.765823e+00 0.000000e+00 0.000000e+00
3.797468e+00 0.000000e+00 0.000000e+00
3.829114e+00 0.000000e+00 0.000000e+00
3.860759e+00 0.000000e+00 0.000000e+00
3.892405e+00 0.000000e+00 0.000000e+00
3.924051e+00 0.000000e+00 0.000000e+00
3.955696e+00 0.000000e+00 0.000000e+00
3.987342e+00 0.000000e+00 0.000000e+00
4.018987e+00 0.000000e+00 0.000000e+00
4.050633e+00 0.000000e+00 0.000000e+00
4.082278e+00 0.000000e+00 0.000000e+00
4.113924e+00 0.000000e+00 0.000000e+00
4.145570e+00 0.000000e+00 0.000000e+00
4.177215e+00 0.000000e+00 0.000000e+00
4.208861e+00 0.000000e+00 0.000000e+00
4.240506e+00 0.000000e+00 0.000000e+00
4.272152e+00 0.000000e+00 0.000000e+00
4.303797e+00 0.000000e+00 0.000000e+00
4.335443e+00 0.000000e+00 0.000000e+00
4.367089e+00 0.000000e+00 0.000000e+00
4.398734e+00 0.000000e+00 0.000000e+00
4.430380e+00 0.000000e+00 0.000000e+00
4.462025e+00 0.000000e+00 0.000000e+00
4.493671e+00 0.000000e+00 0.000000e+00
4.525316e+00 0.000000e+00 0.000000e+00
4.556962e+00 0.000000e+00 0.000000e+00
4.588608e+00 0.000000e+00 0.000000e+00
4.620253e+00 0.000000e+00 0.000000e+00
4.651899e+00 0.000000e+00 0.000000e+00
4.683544e+00 0.000000e+00 0.000000e+00
4.715190e+00 0.000000e+00 0.000000e+00
4.746835e+00 0.000000e+00 0.000000e+00
4.778481e+00 0.000000e+00 0.000000e+00
4.810127e+00 0.000000e+00 0.000000e+00
4.841772e+00 0.000000e+00 0.000000e+00
4.873418e+00 0.000000e+00 0.000000e+00
4.905063e+00 0.000000e+00 0.000000e+00
4.936709e+00 0.000000e+00 0.000000e+00
4.968354e+00 0.000000e+00 0.000000e+00
5.000000e+00 0.000000e+00 0.000000e+00
0.000000e+00 3.333333e-02 0.000000e+00
3.164557e-02 3.333333e-02 0.000000e+00
6.329114e-02 3.333333e-02 0.000000e+00
9.493671e-02 3.333333e-02 0.000000e+00
1.265823e-01 3.333333e-02 0.000000e+00
1.582278e-01 3.333333e-02 0.000000e+00
1.898734e-01 3.333333e-02 0.000000e+00
2.215190e-01 3.333333e-02 0.000000e+00
2.531646e-01 3.333333e-02 0.000000e+00
2.848101e-01 3.333333e-02 0.000000e+00
3.164557e-01 3.333333e-02 0.000000e+00
3.481013e-01 3.333333e-02 0.000000e+00
3.797468e-01 3.333333e-02 0.000000e+00
4.113924e-01 3.333333e-02 0.000000e+00
4.430380e-01 3.333333e-02 0.000000e+00
4.746835e-01 3.333333e-02 0.000000e+00
5.063291e-01 3.333333e-02 0.000000e+00
5.379747e-01 3.333333e-02 0.000000e+00
5.696203e-01 3.333333e-02 0.000000e+00
6.012658e-01 3.333333e-02 0.000000e+00
6.329114e-01 3.333333e-02 0.000000e+00
6.645570e-01 3.333333e-02 0.000000e+00
6.962025e-01 3.333333e-02 0.000000e+00
7.278481e-01 3.333333e-02 0.000000e+00
7.594937e-01 3.333333e-02 0.000000e+00
7.911392e-01 3.333333e-02 0.000000e+00
8.227848e-01 3.333333e-02 0.000000e+00
8.544304e-01 3.333333e-02 0.000000e+00
8.860759e-01 3.333333e-02 0.000000e+00
9.177215e-01 3.333333e-02 0.000000e+00
9.493671e-01 3.333333e-02 0.000000e+00
9.810127e-01 3.333333e-02 0.000000e+00
1.012658e+00 3.333333e-02 0.000000e+00
1.044304e+00 3.333333e-02 0.000000e+00
1.075949e+00 3.333333e-02 0.000000e+00
1.107595e+00 3.333333e-02 0.000000e+00
1.139241e+00 3.333333e-02 0.000000e+00
1.170886e+00 3.333333e-02 0.000000e+00
1.202532e+00 3.333333e-02 0.000000e+00
1.234177e+00 3.333333e-02 0.000000e+00
1.265823e+00 3.333333e-02 0.000000e+00
1.297468e+00 3.333333e-02 0.000000e+00
1.329114e+00 3.333333e-02 0.000000e+00
1.360759e+00 3.333333e-02 0.000000e+00
1.392405e+00 3.333333e-02 0.000000e+00
1.424051e+00 3.333333e-02 0.000000e+00
1.455696e+00 3.333333e-02 0.000000e+00
1.487342e+00 3.333333e-02 0.000000e+00
1.518987e+00 3.333333e-02 0.000000e+00
1.550633e+00 3.333333e-02 0.000000e+00
1.582278e+00 3.333333e-02 0.000000e+00
1.613924e+00 3.333333e-02 0.000000e+00
1.645570e+00 3.333333e-02 0.000000e+00
1.677215e+00 3.333333e-02 0.000000e+00
1.708861e+00 3.333333e-02 0.000000e+00
1.740506e+00 3.333333e-02 0.000000e+00
1.772152e+00 3.333333e-02 0.000000e+00
1.803797e+00 3.333333e-02 0.000000e+00
1.835443e+00 3.333333e-02 0.000000e+00
1.867089e+00 3.333333e-02 0.000000e+00
1.898734e+00 3.333333e-02 0.000000e+00
1.930380e+00 3.333333e-02 0.000000e+00
1.962025e+00 3.333333e-02 0.000000e+00
1.993671e+00 3.333333e-02 0.000000e+00
2.025316e+00 3.333333e-02 0.000000e+00
2.056962e+00 3.333333e-02 0.000000e+00
2.088608e+00 3.333333e-02 0.000000e+00
2.120253e+00 3.333333e-02 0.000000e+00
2.151899e+00 3.333333e-02 0.000000e+00
2.183544e+00 3.333333e-02 0.000000e+00
2.215190e+00 3.333333e-02 0.000000e+00
2.246835e+00 3.333333e-02 0.000000e+00
2.278481e+00 3.333333e-02 0.000000e+00
2.310127e+00 3.333333e-02 0.000000e+00
2.341772e+00 3.333333e-02 0.000000e+00
2.373418e+00 3.333333e-02 0.000000e+00
2.405063e+00 3.333333e-02 0.000000e+00
2.436709e+00 3.333333e-02 0.000000e+00
2.468354e+00 3.333333e-02 0.000000e+00
2.500000e+00 3.333333e-02 0.000000e+00
2.531646e+00 3.333333e-02 0.000000e+00
2.563291e+00 3.333333e-02 0.000000e+00
2.594937e+00 3.333333e-02 0.000000e+00
2.626582e+00 3.333333e-02 0.000000e+00
2.658228e+00 3.333333e-02 0.000000e+00
2.689873e+00 3.333333e-02 0.000000e+00
2.721519e+00 3.333333e-02 0.000000e+00
2.753165e+00 3.333333e-02 0.000000e+00
2.784810e+00 3.333333e-02 0.000000e+00
2.816456e+00 3.333333e-02 0.000000e+00
2.848101e+00 3.333333e-02 0.000000e+00
2.879747e+00 3.333333e-02 0.000000e+00
[...]
<PointData>
<DataArray Name="Velocity" type="Float64" format="ascii" NumberOfComponents="3">
0.000000e+00 0.000000e+00 0
0.000000e+00 0.000000e+00 0
0.000000e+00 0.000000e+00 0
0.000000e+00 0.000000e+00 0
0.000000e+00 0.000000e+00 0
0.000000e+00 0.000000e+00 0
0.000000e+00 0.000000e+00 0
0.000000e+00 0.000000e+00 0
0.000000e+00 0.000000e+00 0
0.000000e+00 0.000000e+00 0
0.000000e+00 0.000000e+00 0
0.000000e+00 0.000000e+00 0
0.000000e+00 0.000000e+00 0
0.000000e+00 0.000000e+00 0
0.000000e+00 0.000000e+00 0
0.000000e+00 0.000000e+00 0
0.000000e+00 0.000000e+00 0
0.000000e+00 0.000000e+00 0
0.000000e+00 0.000000e+00 0
-7.278665e-19 0.000000e+00 0
0.000000e+00 0.000000e+00 0
0.000000e+00 0.000000e+00 0
0.000000e+00 0.000000e+00 0
8.193172e-19 0.000000e+00 0
0.000000e+00 0.000000e+00 0
0.000000e+00 0.000000e+00 0
0.000000e+00 0.000000e+00 0
-1.671532e-18 0.000000e+00 0
0.000000e+00 0.000000e+00 0
0.000000e+00 0.000000e+00 0
0.000000e+00 0.000000e+00 0
-3.193776e-18 0.000000e+00 0
0.000000e+00 0.000000e+00 0
0.000000e+00 0.000000e+00 0
0.000000e+00 0.000000e+00 0
0.000000e+00 0.000000e+00 0
0.000000e+00 0.000000e+00 0
0.000000e+00 0.000000e+00 0
-8.276678e-18 0.000000e+00 0
0.000000e+00 0.000000e+00 0
0.000000e+00 0.000000e+00 0
0.000000e+00 0.000000e+00 0
0.000000e+00 0.000000e+00 0
0.000000e+00 0.000000e+00 0
0.000000e+00 0.000000e+00 0
0.000000e+00 0.000000e+00 0
-3.753843e-18 0.000000e+00 0
0.000000e+00 0.000000e+00 0
0.000000e+00 0.000000e+00 0
0.000000e+00 0.000000e+00 0
0.000000e+00 0.000000e+00 0
0.000000e+00 0.000000e+00 0
0.000000e+00 0.000000e+00 0
0.000000e+00 0.000000e+00 0
-1.377091e-17 0.000000e+00 0
0.000000e+00 0.000000e+00 0
0.000000e+00 0.000000e+00 0
0.000000e+00 0.000000e+00 0
0.000000e+00 0.000000e+00 0
0.000000e+00 0.000000e+00 0
0.000000e+00 0.000000e+00 0
0.000000e+00 0.000000e+00 0
-2.821955e-17 0.000000e+00 0
0.000000e+00 0.000000e+00 0
0.000000e+00 0.000000e+00 0
0.000000e+00 0.000000e+00 0
0.000000e+00 0.000000e+00 0
0.000000e+00 0.000000e+00 0
0.000000e+00 0.000000e+00 0
0.000000e+00 0.000000e+00 0
0.000000e+00 0.000000e+00 0
0.000000e+00 0.000000e+00 0
0.000000e+00 0.000000e+00 0
0.000000e+00 0.000000e+00 0
0.000000e+00 0.000000e+00 0
0.000000e+00 0.000000e+00 0
0.000000e+00 0.000000e+00 0
0.000000e+00 0.000000e+00 0
0.000000e+00 0.000000e+00 0
0.000000e+00 0.000000e+00 0
0.000000e+00 0.000000e+00 0
0.000000e+00 0.000000e+00 0
0.000000e+00 0.000000e+00 0
0.000000e+00 0.000000e+00 0
0.000000e+00 0.000000e+00 0
0.000000e+00 0.000000e+00 0
0.000000e+00 0.000000e+00 0
0.000000e+00 0.000000e+00 0
0.000000e+00 0.000000e+00 0
0.000000e+00 0.000000e+00 0
0.000000e+00 0.000000e+00 0
0.000000e+00 0.000000e+00 0
0.000000e+00 0.000000e+00 0
0.000000e+00 0.000000e+00 0
0.000000e+00 0.000000e+00 0
0.000000e+00 0.000000e+00 0
0.000000e+00 0.000000e+00 0
0.000000e+00 0.000000e+00 0
0.000000e+00 0.000000e+00 0
0.000000e+00 0.000000e+00 0
0.000000e+00 0.000000e+00 0
0.000000e+00 0.000000e+00 0
0.000000e+00 0.000000e+00 0
0.000000e+00 0.000000e+00 0
0.000000e+00 0.000000e+00 0
0.000000e+00 0.000000e+00 0
0.000000e+00 0.000000e+00 0
0.000000e+00 0.000000e+00 0
0.000000e+00 0.000000e+00 0
0.000000e+00 0.000000e+00 0
0.000000e+00 0.000000e+00 0
0.000000e+00 0.000000e+00 0
0.000000e+00 0.000000e+00 0
0.000000e+00 0.000000e+00 0
0.000000e+00 0.000000e+00 0
0.000000e+00 0.000000e+00 0
0.000000e+00 0.000000e+00 0
0.000000e+00 0.000000e+00 0
0.000000e+00 0.000000e+00 0
0.000000e+00 0.000000e+00 0
0.000000e+00 0.000000e+00 0
0.000000e+00 0.000000e+00 0
0.000000e+00 0.000000e+00 0
0.000000e+00 0.000000e+00 0
0.000000e+00 0.000000e+00 0
0.000000e+00 0.000000e+00 0
0.000000e+00 0.000000e+00 0
0.000000e+00 0.000000e+00 0
0.000000e+00 0.000000e+00 0
0.000000e+00 0.000000e+00 0
0.000000e+00 0.000000e+00 0
0.000000e+00 0.000000e+00 0
0.000000e+00 0.000000e+00 0
0.000000e+00 0.000000e+00 0
0.000000e+00 0.000000e+00 0
0.000000e+00 0.000000e+00 0
0.000000e+00 0.000000e+00 0
0.000000e+00 0.000000e+00 0
0.000000e+00 0.000000e+00 0
0.000000e+00 0.000000e+00 0
0.000000e+00 0.000000e+00 0
0.000000e+00 0.000000e+00 0
0.000000e+00 0.000000e+00 0
0.000000e+00 0.000000e+00 0
0.000000e+00 0.000000e+00 0
0.000000e+00 0.000000e+00 0
0.000000e+00 0.000000e+00 0
0.000000e+00 0.000000e+00 0
0.000000e+00 0.000000e+00 0
0.000000e+00 0.000000e+00 0
0.000000e+00 0.000000e+00 0
0.000000e+00 0.000000e+00 0
0.000000e+00 0.000000e+00 0
0.000000e+00 0.000000e+00 0
0.000000e+00 0.000000e+00 0
0.000000e+00 0.000000e+00 0
0.000000e+00 0.000000e+00 0
0.000000e+00 0.000000e+00 0
0.000000e+00 0.000000e+00 0
0.000000e+00 0.000000e+00 0
-1.246512e-01 -3.194059e-01 0
-1.635174e-02 1.021994e-02 0
-3.174778e-02 2.303606e-03 0
-2.373664e-02 1.087227e-03 0
-2.337998e-02 1.147714e-03 0
-2.077283e-02 1.134247e-03 0
-1.893761e-02 1.138240e-03 0
-1.689621e-02 1.115610e-03 0
-1.496223e-02 1.082732e-03 0
-1.309291e-02 1.034449e-03 0
-1.152309e-02 9.684170e-04 0
-1.094426e-02 8.546754e-04 0
-1.329795e-02 5.810707e-04 0
-2.029405e-02 7.829597e-05 0
-2.802789e-02 -3.485783e-04 0
7.280075e-01 4.882903e-03 0
0.000000e+00 0.000000e+00 0
9.438917e-03 -1.029592e-02 0
1.850382e-02 -8.551868e-03 0
2.417450e-02 -5.050723e-03 0
2.748085e-02 -1.870811e-03 0
2.470558e-02 -7.738492e-04 0
1.467793e-02 3.840024e-04 0
-1.536432e-03 1.086329e-02 0
-2.569770e-02 2.665771e-02 0
-5.783694e-02 3.670222e-02 0
-9.580470e-02 4.248630e-02 0
-1.381861e-01 4.700753e-02 0
-1.837550e-01 5.021123e-02 0
-2.313841e-01 5.219643e-02 0
-2.800535e-01 5.310524e-02 0
-3.288588e-01 5.308177e-02 0
-3.770188e-01 5.226908e-02 0
-4.238789e-01 5.080849e-02 0
-4.689127e-01 4.883787e-02 0
-5.117196e-01 4.648920e-02 0
-5.520188e-01 4.388572e-02 0
-5.896408e-01 4.113921e-02 0
-6.245148e-01 3.834759e-02 0
-6.566548e-01 3.559324e-02 0
-6.861444e-01 3.294220e-02 0
-7.131202e-01 3.044416e-02 0
-7.377574e-01 2.813341e-02 0
-7.602550e-01 2.603036e-02 0
-7.808237e-01 2.414349e-02 0
-7.996759e-01 2.247117e-02 0
-8.170172e-01 2.100317e-02 0
-8.330390e-01 1.972139e-02 0
-8.479111e-01 1.860028e-02 0
-8.617750e-01 1.760739e-02 0
-8.747371e-01 1.670477e-02 0
-8.868633e-01 1.585168e-02 0
-8.981787e-01 1.500834e-02 0
-9.086712e-01 1.413885e-02 0
-9.182994e-01 1.321022e-02 0
-9.269974e-01 1.218488e-02 0
-9.346645e-01 1.100908e-02 0
-9.411398e-01 9.604612e-03 0
-9.461723e-01 7.868097e-03 0
-9.493976e-01 5.674866e-03 0
-9.503270e-01 2.876852e-03 0
-9.483582e-01 -6.340153e-04 0
-9.430649e-01 -4.763880e-03 0
-9.338331e-01 -9.423453e-03 0
-9.200935e-01 -1.460371e-02 0
-9.013769e-01 -2.019146e-02 0
-8.773608e-01 -2.602197e-02 0
-8.479038e-01 -3.190200e-02 0
-8.130750e-01 -3.764562e-02 0
-7.730896e-01 -4.309468e-02 0
-7.282887e-01 -4.810708e-02 0
-6.791434e-01 -5.255627e-02 0
-6.262394e-01 -5.634926e-02 0
-5.702695e-01 -5.948364e-02 0
-5.118279e-01 -6.204138e-02 0
-4.512684e-01 -6.394891e-02 0
-3.893901e-01 -6.512599e-02 0
-3.268337e-01 -6.567689e-02 0
-2.643284e-01 -6.598661e-02 0
-2.014549e-01 -6.579523e-02 0
-1.391143e-01 -6.468948e-02 0
-7.718144e-02 -6.413074e-02 0
-1.759965e-02 -6.386657e-02 0
3.957930e-02 -6.280369e-02 0
9.439063e-02 -5.948397e-02 0
1.463861e-01 -5.465959e-02 0
1.955141e-01 -5.084741e-02 0
2.418664e-01 -4.765189e-02 0
2.855352e-01 -4.472066e-02 0
3.265942e-01 -4.191800e-02 0
3.651067e-01 -3.919896e-02 0
4.011346e-01 -3.655193e-02 0
4.347430e-01 -3.397715e-02 0
4.660020e-01 -3.147873e-02 0
4.949871e-01 -2.906161e-02 0
5.217785e-01 -2.673035e-02 0
5.464605e-01 -2.448873e-02 0
5.691203e-01 -2.233960e-02 0
5.898475e-01 -2.028494e-02 0
6.087330e-01 -1.832593e-02 0
6.258682e-01 -1.646300e-02 0
6.413446e-01 -1.469599e-02 0
6.552533e-01 -1.302422e-02 0
6.676843e-01 -1.144655e-02 0
6.787261e-01 -9.961484e-03 0
6.884657e-01 -8.567247e-03 0
6.969879e-01 -7.261829e-03 0
7.043756e-01 -6.043073e-03 0
7.107092e-01 -4.908773e-03 0
7.160665e-01 -3.856835e-03 0
7.205232e-01 -2.885622e-03 0
7.241524e-01 -1.994779e-03 0
7.270252e-01 -1.187373e-03 0
7.292107e-01 -4.782269e-04 0
7.307732e-01 1.144727e-04 0
7.317715e-01 6.115682e-04 0
7.322658e-01 1.052539e-03 0
7.323185e-01 1.455408e-03 0
7.319834e-01 1.818855e-03 0
7.313096e-01 2.135629e-03 0
7.303430e-01 2.406676e-03 0
7.291259e-01 2.635006e-03 0
7.276971e-01 2.823847e-03 0
7.260924e-01 2.976233e-03 0
7.243447e-01 3.095005e-03 0
7.224842e-01 3.182877e-03 0
7.205385e-01 3.242462e-03 0
7.185331e-01 3.276267e-03 0
7.164909e-01 3.286669e-03 0
7.144329e-01 3.275909e-03 0
7.123780e-01 3.246094e-03 0
7.103434e-01 3.199222e-03 0
7.083443e-01 3.137193e-03 0
7.063943e-01 3.061827e-03 0
7.045052e-01 2.974868e-03 0
7.026874e-01 2.877985e-03 0
7.009496e-01 2.772772e-03 0
6.992993e-01 2.660748e-03 0
6.977424e-01 2.543364e-03 0
6.962836e-01 2.422008e-03 0
6.949264e-01 2.298019e-03 0
6.936728e-01 2.172696e-03 0
6.925240e-01 2.047310e-03 0
6.914797e-01 1.923114e-03 0
6.905386e-01 1.801367e-03 0
6.896982e-01 1.683346e-03 0
6.889546e-01 1.570373e-03 0
6.883030e-01 1.463839e-03 0
6.877369e-01 1.365239e-03 0
6.872483e-01 1.276220e-03 0
6.868278e-01 1.198607e-03 0
6.864638e-01 1.134311e-03 0
6.861429e-01 1.084797e-03 0
6.858497e-01 1.049417e-03 0
6.855684e-01 1.019897e-03 0
6.852848e-01 9.653212e-04 0
6.849943e-01 6.901948e-04 0
6.849943e-01 4.545705e-04 0
0.000000e+00 0.000000e+00 0
-7.751066e-02 -1.862474e-01 0
-3.927376e-02 3.215094e-03 0
-4.849914e-02 -4.750251e-04 0
-3.817626e-02 3.389117e-04 0
-3.630342e-02 6.986016e-04 0
-3.161839e-02 9.801613e-04 0
-2.823566e-02 1.168940e-03 0
-2.465327e-02 1.274138e-03 0
-2.143251e-02 1.317200e-03 0
-1.846166e-02 1.306903e-03 0
-1.605763e-02 1.245293e-03 0
-1.494432e-02 1.074820e-03 0
-1.677482e-02 6.359149e-04 0
-2.239152e-02 -1.146572e-04 0
-2.837563e-02 -7.320809e-04 0
7.321333e-01 9.485062e-03 0
0.000000e+00 0.000000e+00 0
7.044090e-03 -1.949011e-02 0
1.263948e-02 -1.552113e-02 0
1.438068e-02 -9.455453e-03 0
8.869202e-03 -5.590471e-04 0
-2.481348e-03 1.348610e-02 0
-2.304436e-02 2.764194e-02 0
-5.102242e-02 4.252935e-02 0
-7.971327e-02 5.930356e-02 0
-1.107468e-01 7.384640e-02 0
-1.460247e-01 8.463484e-02 0
-1.844458e-01 9.264130e-02 0
-2.250472e-01 9.816892e-02 0
-2.669262e-01 1.014348e-01 0
-3.092354e-01 1.026737e-01 0
-3.512066e-01 1.021372e-01 0
-3.921695e-01 1.000882e-01 0
-4.315642e-01 9.679528e-02 0
-4.689466e-01 9.252587e-02 0
-5.039893e-01 8.753879e-02 0
-5.364763e-01 8.207736e-02 0
-5.662952e-01 7.636273e-02 0
-5.934244e-01 7.058847e-02 0
-6.179185e-01 6.491687e-02 0
-6.398927e-01 5.947725e-02 0
-6.595071e-01 5.436610e-02 0
-6.769523e-01 4.964892e-02 0
-6.924357e-01 4.536345e-02 0
-7.061702e-01 4.152374e-02 0
-7.183655e-01 3.812423e-02 0
-7.292212e-01 3.514274e-02 0
-7.389217e-01 3.254184e-02 0
-7.476295e-01 3.026900e-02 0
-7.554790e-01 2.825705e-02 0
-7.625688e-01 2.642663e-02 0
-7.689553e-01 2.469215e-02 0
-7.746512e-01 2.297126e-02 0
-7.796318e-01 2.119417e-02 0
-7.838533e-01 1.930390e-02 0
-7.872704e-01 1.723811e-02 0
-7.898280e-01 1.489701e-02 0
-7.914118e-01 1.212194e-02 0
-7.917997e-01 8.698459e-03 0
-7.906305e-01 4.376474e-03 0
-7.874062e-01 -1.094519e-03 0
-7.818825e-01 -7.649112e-03 0
-7.734164e-01 -1.529953e-02 0
-7.612472e-01 -2.419628e-02 0
-7.447350e-01 -3.418689e-02 0
-7.233869e-01 -4.501149e-02 0
-6.968773e-01 -5.632472e-02 0
-6.650734e-01 -6.771417e-02 0
-6.281685e-01 -7.880413e-02 0
-5.864228e-01 -8.930800e-02 0
-5.401794e-01 -9.895638e-02 0
-4.898915e-01 -1.074917e-01 0
-4.361069e-01 -1.146803e-01 0
-3.796208e-01 -1.205131e-01 0
-3.211543e-01 -1.253477e-01 0
-2.608895e-01 -1.289677e-01 0
-1.995995e-01 -1.310710e-01 0
-1.375974e-01 -1.317314e-01 0
-7.524875e-02 -1.320655e-01 0
-1.459261e-02 -1.318921e-01 0
4.470216e-02 -1.309012e-01 0
1.026953e-01 -1.279952e-01 0
1.578123e-01 -1.229878e-01 0
2.102179e-01 -1.179629e-01 0
2.598011e-01 -1.125030e-01 0
3.082678e-01 -1.065166e-01 0
3.549322e-01 -1.005724e-01 0
3.993506e-01 -9.482215e-02 0
4.413713e-01 -8.924657e-02 0
4.809644e-01 -8.381518e-02 0
5.181499e-01 -7.851575e-02 0
5.529709e-01 -7.335009e-02 0
5.854841e-01 -6.832688e-02 0
6.157558e-01 -6.345702e-02 0
6.438591e-01 -5.875116e-02 0
6.698731e-01 -5.421856e-02 0
6.938808e-01 -4.986665e-02 0
7.159684e-01 -4.570097e-02 0
7.362243e-01 -4.172527e-02 0
7.547382e-01 -3.794167e-02 0
7.716004e-01 -3.435087e-02 0
7.869012e-01 -3.095230e-02 0
8.007302e-01 -2.774438e-02 0
8.131762e-01 -2.472459e-02 0
8.243263e-01 -2.188967e-02 0
8.342660e-01 -1.923575e-02 0
8.430787e-01 -1.675844e-02 0
8.508455e-01 -1.445298e-02 0
8.576449e-01 -1.231433e-02 0
8.635527e-01 -1.033738e-02 0
8.686417e-01 -8.517105e-03 0
8.729811e-01 -6.848808e-03 0
8.766358e-01 -5.328078e-03 0
8.796633e-01 -3.947903e-03 0
8.821041e-01 -2.697335e-03 0
8.839873e-01 -1.572146e-03 0
8.853626e-01 -5.762451e-04 0
8.862837e-01 2.974660e-04 0
8.868263e-01 1.062785e-03 0
8.870460e-01 1.727883e-03 0
8.869880e-01 2.300129e-03 0
8.866922e-01 2.786980e-03 0
8.861947e-01 3.195269e-03 0
8.855286e-01 3.531244e-03 0
8.847242e-01 3.800720e-03 0
8.838091e-01 4.009182e-03 0
8.828087e-01 4.161814e-03 0
8.817463e-01 4.263507e-03 0
8.806428e-01 4.318852e-03 0
8.795176e-01 4.332169e-03 0
8.783878e-01 4.307535e-03 0
8.772692e-01 4.248829e-03 0
8.761755e-01 4.159760e-03 0
8.751191e-01 4.043887e-03 0
8.741107e-01 3.904617e-03 0
8.731597e-01 3.745208e-03 0
8.722740e-01 3.568767e-03 0
8.714602e-01 3.378255e-03 0
8.707238e-01 3.176504e-03 0
8.700691e-01 2.966225e-03 0
8.694992e-01 2.750038e-03 0
8.690163e-01 2.530489e-03 0
8.686212e-01 2.310073e-03 0
8.683142e-01 2.091262e-03 0
8.680940e-01 1.876537e-03 0
8.679587e-01 1.668430e-03 0
8.679053e-01 1.469567e-03 0
8.679295e-01 1.282737e-03 0
8.680259e-01 1.110960e-03 0
8.681879e-01 9.575834e-04 0
8.684073e-01 8.263588e-04 0
8.686744e-01 7.214106e-04 0
8.689776e-01 6.467950e-04 0
8.693025e-01 6.051384e-04 0
8.696296e-01 5.950661e-04 0
8.699240e-01 6.046704e-04 0
8.701182e-01 6.749061e-04 0
8.701182e-01 7.378763e-04 0
0.000000e+00 0.000000e+00 0
-9.234710e-02 -2.354058e-01 0
-4.960600e-02 -3.091174e-03 0
-5.813425e-02 -7.957109e-03 0
-4.766140e-02 -5.317188e-03 0
-4.513871e-02 -4.577462e-03 0
-3.963190e-02 -3.520561e-03 0
-3.540148e-02 -2.703037e-03 0
-3.085773e-02 -1.923733e-03 0
-2.669216e-02 -1.267267e-03 0
-2.279550e-02 -7.273162e-04 0
-1.954520e-02 -3.370853e-04 0
-1.762500e-02 -1.432213e-04 0
-1.848429e-02 -2.521334e-04 0
-2.297256e-02 -6.600460e-04 0
-2.848123e-02 -1.035697e-03 0
7.347149e-01 1.196269e-02 0
0.000000e+00 0.000000e+00 0
1.562984e-03 -2.360913e-02 0
-6.097234e-04 -1.627960e-02 0
-7.596115e-03 -1.079215e-03 0
-2.077722e-02 1.589068e-02 0
-3.701561e-02 3.284192e-02 0
-5.601293e-02 5.151408e-02 0
-7.904772e-02 7.055469e-02 0
-1.042302e-01 8.956751e-02 0
-1.308312e-01 1.065504e-01 0
-1.595254e-01 1.201161e-01 0
-1.899755e-01 1.302447e-01 0
-2.215984e-01 1.370907e-01 0
-2.537588e-01 1.408748e-01 0
-2.858301e-01 1.418808e-01 0
-3.172326e-01 1.404392e-01 0
-3.474596e-01 1.369125e-01 0
-3.760934e-01 1.316805e-01 0
-4.028126e-01 1.251258e-01 0
-4.273936e-01 1.176206e-01 0
-4.497064e-01 1.095148e-01 0
-4.697085e-01 1.011247e-01 0
-4.874312e-01 9.272425e-02 0
-5.029654e-01 8.453993e-02 0
-5.164475e-01 7.674903e-02 0
-5.280451e-01 6.948050e-02 0
-5.379445e-01 6.281831e-02 0
-5.463398e-01 5.680662e-02 0
-5.534232e-01 5.145632e-02 0
-5.593784e-01 4.675174e-02 0
-5.643771e-01 4.265585e-02 0
-5.685774e-01 3.911160e-02 0
-5.721195e-01 3.604083e-02 0
-5.751199e-01 3.334356e-02 0
-5.776634e-01 3.089994e-02 0
-5.797916e-01 2.857861e-02 0
-5.814921e-01 2.625435e-02 0
-5.827007e-01 2.383187e-02 0
-5.833375e-01 2.125636e-02 0
-5.833701e-01 1.847832e-02 0
-5.828245e-01 1.537144e-02 0
-5.816710e-01 1.168161e-02 0
-5.797615e-01 7.045268e-03 0
-5.768114e-01 1.047192e-03 0
-5.726038e-01 -6.337544e-03 0
-5.664933e-01 -1.536982e-02 0
-5.574429e-01 -2.649963e-02 0
-5.446176e-01 -3.963439e-02 0
-5.273173e-01 -5.448311e-02 0
-5.050679e-01 -7.060150e-02 0
-4.775738e-01 -8.744547e-02 0
-4.446271e-01 -1.042752e-01 0
-4.067978e-01 -1.204908e-01 0
-3.644434e-01 -1.357764e-01 0
-3.180391e-01 -1.497866e-01 0
-2.680546e-01 -1.621792e-01 0
-2.149409e-01 -1.725010e-01 0
-1.592980e-01 -1.805669e-01 0
-1.014719e-01 -1.871049e-01 0
-4.338560e-02 -1.919866e-01 0
1.472626e-02 -1.949936e-01 0
7.268379e-02 -1.966596e-01 0
1.303020e-01 -1.955516e-01 0
1.860413e-01 -1.921435e-01 0
2.400439e-01 -1.882327e-01 0
2.915631e-01 -1.832734e-01 0
3.419357e-01 -1.771236e-01 0
3.907282e-01 -1.702317e-01 0
4.375391e-01 -1.627631e-01 0
4.825389e-01 -1.548643e-01 0
5.256037e-01 -1.467879e-01 0
5.665573e-01 -1.387011e-01 0
6.052899e-01 -1.306872e-01 0
6.417581e-01 -1.227914e-01 0
6.759629e-01 -1.150457e-01 0
7.079332e-01 -1.074772e-01 0
7.377162e-01 -1.001105e-01 0
7.653709e-01 -9.296706e-02 0
7.909652e-01 -8.606520e-02 0
8.145729e-01 -7.941980e-02 0
8.362725e-01 -7.304237e-02 0
8.561458e-01 -6.694137e-02 0
8.742765e-01 -6.112243e-02 0
8.907500e-01 -5.558874e-02 0
9.056520e-01 -5.034133e-02 0
9.190684e-01 -4.537939e-02 0
9.310849e-01 -4.070054e-02 0
9.417858e-01 -3.630106e-02 0
9.512547e-01 -3.217608e-02 0
9.595731e-01 -2.831977e-02 0
9.668211e-01 -2.472553e-02 0
9.730762e-01 -2.138609e-02 0
9.784139e-01 -1.829367e-02 0
9.829068e-01 -1.544009e-02 0
9.866248e-01 -1.281689e-02 0
9.896343e-01 -1.041529e-02 0
9.919979e-01 -8.225931e-03 0
9.937738e-01 -6.238179e-03 0
9.950179e-01 -4.440122e-03 0
9.957848e-01 -2.820683e-03 0
9.961195e-01 -1.366391e-03 0
9.960739e-01 -8.630938e-05 0
9.957037e-01 1.015987e-03 0
9.950546e-01 1.965260e-03 0
9.941667e-01 2.779283e-03 0
9.930763e-01 3.470588e-03 0
9.918164e-01 4.049505e-03 0
9.904171e-01 4.525239e-03 0
9.889062e-01 4.906260e-03 0
9.873090e-01 5.200471e-03 0
9.856485e-01 5.415288e-03 0
9.839459e-01 5.557684e-03 0
9.822204e-01 5.634238e-03 0
9.804893e-01 5.651171e-03 0
9.787680e-01 5.614390e-03 0
9.770703e-01 5.529520e-03 0
9.754084e-01 5.401928e-03 0
9.737930e-01 5.236726e-03 0
9.722333e-01 5.038781e-03 0
9.707371e-01 4.812718e-03 0
9.693112e-01 4.562923e-03 0
9.679610e-01 4.293568e-03 0
9.666911e-01 4.008623e-03 0
9.655046e-01 3.711884e-03 0
9.644042e-01 3.407003e-03 0
9.633913e-01 3.097513e-03 0
9.624664e-01 2.786865e-03 0
9.616294e-01 2.478467e-03 0
9.608791e-01 2.175727e-03 0
9.602137e-01 1.882108e-03 0
9.596304e-01 1.601202e-03 0
9.591256e-01 1.336810e-03 0
9.586948e-01 1.093054e-03 0
9.583327e-01 8.744841e-04 0
9.580326e-01 6.861555e-04 0
9.577867e-01 5.336262e-04 0
9.575853e-01 4.231319e-04 0
9.574153e-01 3.626361e-04 0
9.572574e-01 3.653024e-04 0
9.570786e-01 4.506614e-04 0
9.568252e-01 8.159497e-04 0
9.568252e-01 1.115136e-03 0
0.000000e+00 0.000000e+00 0
-8.484757e-02 -2.179457e-01 0
-4.491425e-02 -9.081524e-03 0
-5.350651e-02 -1.329988e-02 0
-4.478295e-02 -9.931490e-03 0
-4.319735e-02 -9.478471e-03 0
-3.871843e-02 -8.408680e-03 0
-3.521078e-02 -7.590934e-03 0
-3.122767e-02 -6.665359e-03 0
-2.741639e-02 -5.774678e-03 0
-2.370287e-02 -4.880961e-03 0
-2.048975e-02 -4.020048e-03 0
-1.847096e-02 -3.189222e-03 0
-1.905971e-02 -2.377063e-03 0
-2.318664e-02 -1.642030e-03 0
-2.860287e-02 -1.186791e-03 0
7.376562e-01 1.105710e-02 0
0.000000e+00 0.000000e+00 0
-5.308636e-03 -1.884750e-02 0
-1.514136e-02 -5.873400e-03 0
-2.740221e-02 1.178779e-02 0
-3.953565e-02 3.042963e-02 0
-5.421265e-02 5.060119e-02 0
-7.054320e-02 7.191591e-02 0
-8.868640e-02 9.331839e-02 0
-1.080221e-01 1.138490e-01 0
-1.280250e-01 1.320908e-01 0
-1.488146e-01 1.469337e-01 0
-1.702690e-01 1.580250e-01 0
-1.920906e-01 1.653542e-01 0
-2.139039e-01 1.690923e-01 0
-2.353136e-01 1.695329e-01 0
-2.559408e-01 1.670537e-01 0
-2.754513e-01 1.620883e-01 0
-2.935724e-01 1.551006e-01 0
-3.100988e-01 1.465622e-01 0
-3.248936e-01 1.369337e-01 0
-3.378868e-01 1.266492e-01 0
-3.490769e-01 1.160996e-01 0
-3.585154e-01 1.056192e-01 0
-3.662950e-01 9.548090e-02 0
-3.725388e-01 8.589466e-02 0
-3.773898e-01 7.700974e-02 0
-3.810028e-01 6.891945e-02 0
-3.835354e-01 6.166782e-02 0
-3.851409e-01 5.525797e-02 0
-3.859611e-01 4.966252e-02 0
-3.861283e-01 4.483249e-02 0
-3.857742e-01 4.069731e-02 0
-3.850211e-01 3.716056e-02 0
-3.839778e-01 3.409674e-02 0
-3.827293e-01 3.134762e-02 0
-3.813148e-01 2.872514e-02 0
-3.796858e-01 2.603558e-02 0
-3.776730e-01 2.313810e-02 0
-3.750461e-01 2.000916e-02 0
-3.717507e-01 1.669794e-02 0