<?xml version="1.0"?>
<VTKFile type="StructuredGrid">
<StructuredGrid WholeExtent="0 18 0 2 0 0 ">
<Piece Extent="0 18 0 2 0 0 ">
<Points>
<DataArray type="Float64" format="ascii" NumberOfComponents="3">
0.000000e+00 0.000000e+00 0.000000e+00
2.777778e-01 0.000000e+00 0.000000e+00
5.555556e-01 0.000000e+00 0.000000e+00
8.333333e-01 0.000000e+00 0.000000e+00
1.111111e+00 0.000000e+00 0.000000e+00
1.388889e+00 0.000000e+00 0.000000e+00
1.666667e+00 0.000000e+00 0.000000e+00
1.944444e+00 0.000000e+00 0.000000e+00
2.222222e+00 0.000000e+00 0.000000e+00
2.500000e+00 0.000000e+00 0.000000e+00
2.777778e+00 0.000000e+00 0.000000e+00
3.055556e+00 0.000000e+00 0.000000e+00
3.333333e+00 0.000000e+00 0.000000e+00
3.611111e+00 0.000000e+00 0.000000e+00
3.888889e+00 0.000000e+00 0.000000e+00
4.166667e+00 0.000000e+00 0.000000e+00
4.444444e+00 0.000000e+00 0.000000e+00
4.722222e+00 0.000000e+00 0.000000e+00
5.000000e+00 0.000000e+00 0.000000e+00
0.000000e+00 5.000000e-01 0.000000e+00
2.777778e-01 5.000000e-01 0.000000e+00
5.555556e-01 5.000000e-01 0.000000e+00
8.333333e-01 5.000000e-01 0.000000e+00
1.111111e+00 5.000000e-01 0.000000e+00
1.388889e+00 5.000000e-01 0.000000e+00
1.666667e+00 5.000000e-01 0.000000e+00
1.944444e+00 5.000000e-01 0.000000e+00
2.222222e+00 5.000000e-01 0.000000e+00
2.500000e+00 5.000000e-01 0.000000e+00
2.777778e+00 5.000000e-01 0.000000e+00
3.055556e+00 5.000000e-01 0.000000e+00
3.333333e+00 5.000000e-01 0.000000e+00
3.611111e+00 5.000000e-01 0.000000e+00
3.888889e+00 5.000000e-01 0.000000e+00
4.166667e+00 5.000000e-01 0.000000e+00
4.444444e+00 5.000000e-01 0.000000e+00
4.722222e+00 5.000000e-01 0.000000e+00
5.000000e+00 5.000000e-01 0.000000e+00
0.000000e+00 1.000000e+00 0.000000e+00
2.777778e-01 1.000000e+00 0.000000e+00
5.555556e-01 1.000000e+00 0.000000e+00
8.333333e-01 1.000000e+00 0.000000e+00
1.111111e+00 1.000000e+00 0.000000e+00
1.388889e+00 1.000000e+00 0.000000e+00
1.666667e+00 1.000000e+00 0.000000e+00
1.944444e+00 1.000000e+00 0.000000e+00
2.222222e+00 1.000000e+00 0.000000e+00
2.500000e+00 1.000000e+00 0.000000e+00
2.777778e+00 1.000000e+00 0.000000e+00
3.055556e+00 1.000000e+00 0.000000e+00
3.333333e+00 1.000000e+00 0.000000e+00
3.611111e+00 1.000000e+00 0.000000e+00
3.888889e+00 1.000000e+00 0.000000e+00
4.166667e+00 1.000000e+00 0.000000e+00
4.444444e+00 1.000000e+00 0.000000e+00
4.722222e+00 1.000000e+00 0.000000e+00
5.000000e+00 1.000000e+00 0.000000e+00
</DataArray>
</Points>
<PointData>
<DataArray Name="Velocity" type="Float64" format="ascii" NumberOfComponents="3">
0.000000e+00 0.000000e+00 0
-1.814031e-02 0.000000e+00 0
-2.755261e-02 0.000000e+00 0
-1.130830e-02 0.000000e+00 0
0.000000e+00 0.000000e+00 0
0.000000e+00 0.000000e+00 0
0.000000e+00 0.000000e+00 0
-5.904044e-18 0.000000e+00 0
0.000000e+00 0.000000e+00 0
0.000000e+00 0.000000e+00 0
0.000000e+00 0.000000e+00 0
0.000000e+00 0.000000e+00 0
0.000000e+00 0.000000e+00 0
0.000000e+00 0.000000e+00 0
-1.090692e-17 0.000000e+00 0
0.000000e+00 0.000000e+00 0
0.000000e+00 0.000000e+00 0
0.000000e+00 0.000000e+00 0
0.000000e+00 0.000000e+00 0
8.026220e-01 0.000000e+00 0
0.000000e+00 0.000000e+00 0
0.000000e+00 0.000000e+00 0
7.991438e-01 -3.641753e-02 0
8.104667e-01 -8.884497e-02 0
8.104666e-01 -1.087706e-01 0
8.104637e-01 -1.105258e-01 0
8.104585e-01 -1.037269e-01 0
8.104507e-01 -9.386905e-02 0
8.104373e-01 -8.371010e-02 0
8.104407e-01 -7.441758e-02 0
8.104248e-01 -6.633247e-02 0
8.104316e-01 -5.939321e-02 0
8.104182e-01 -5.334754e-02 0
8.104274e-01 -4.782248e-02 0
8.104162e-01 -4.227525e-02 0
8.104272e-01 -3.599621e-02 0
8.104176e-01 -2.431217e-02 0
8.104176e-01 -1.604662e-02 0
0.000000e+00 0.000000e+00 0
0.000000e+00 0.000000e+00 0
0.000000e+00 0.000000e+00 0
0.000000e+00 0.000000e+00 0
0.000000e+00 0.000000e+00 0
0.000000e+00 0.000000e+00 0
0.000000e+00 0.000000e+00 0
-3.183945e-17 0.000000e+00 0
0.000000e+00 0.000000e+00 0
0.000000e+00 0.000000e+00 0
0.000000e+00 0.000000e+00 0
0.000000e+00 0.000000e+00 0
0.000000e+00 0.000000e+00 0
0.000000e+00 0.000000e+00 0
4.830589e-17 0.000000e+00 0
0.000000e+00 0.000000e+00 0
0.000000e+00 0.000000e+00 0
0.000000e+00 0.000000e+00 0
0.000000e+00 0.000000e+00 0
</DataArray>
<DataArray Name="Pressure" type="Float64" format="ascii">
7.123000e-02 4.244147e-02 -4.802308e-02 -1.456212e-01 -1.492343e-01 -8.225981e-02 -1.872641e-02 3.117199e-02 6.596062e-02 8.753077e-02 9.855967e-02 1.014914e-01 9.825408e-02 9.029383e-02 7.867957e-02 6.422631e-02 4.762548e-02 3.063649e-02 5.601038e-03 
8.561351e-02 4.242616e-02 -3.010413e-02 -1.009535e-01 -1.091018e-01 -6.361056e-02 -1.257047e-02 3.097061e-02 6.303924e-02 8.381289e-02 9.493048e-02 9.827253e-02 9.547496e-02 8.782952e-02 7.629478e-02 6.153889e-02 4.397430e-02 2.302152e-02 8.207410e-17 
9.280526e-02 4.242616e-02 -1.215399e-02 -5.626686e-02 -6.896931e-02 -4.496130e-02 -6.414525e-03 3.076924e-02 6.011787e-02 8.009501e-02 9.130129e-02 9.505372e-02 9.269584e-02 8.536521e-02 7.390999e-02 5.885146e-02 4.032312e-02 1.540654e-02 1.591819e-04 
</DataArray>
<DataArray Name="Stream" type="Float64" format="ascii">
0.000000e+00 0.000000e+00 0.000000e+00 0.000000e+00 0.000000e+00 0.000000e+00 0.000000e+00 0.000000e+00 0.000000e+00 0.000000e+00 0.000000e+00 0.000000e+00 0.000000e+00 0.000000e+00 0.000000e+00 0.000000e+00 0.000000e+00 0.000000e+00 0.000000e+00 
0.000000e+00 0.000000e+00 0.000000e+00 0.000000e+00 3.155492e-02 6.068206e-02 9.198315e-02 1.220819e-01 1.496026e-01 1.742192e-01 1.961004e-01 2.155534e-01 2.329453e-01 2.485443e-01 2.625789e-01 2.751100e-01 2.860642e-01 2.951080e-01 2.951080e-01 
0.000000e+00 8.026220e-01 8.026283e-01 7.991438e-01 8.104667e-01 8.104666e-01 8.104637e-01 8.104585e-01 8.104507e-01 8.104373e-01 8.104407e-01 8.104248e-01 8.104316e-01 8.104182e-01 8.104274e-01 8.104162e-01 8.104272e-01 8.104176e-01 8.104176e-01 
</DataArray>
<DataArray Name="Vorticity" type="Float64" format="ascii">
0.000000e+00 -6.348415e+00 -6.310816e+00 4.523321e-02 2.524394e-01 4.854565e-01 7.358652e-01 9.766553e-01 1.196821e+00 1.393754e+00 1.568804e+00 1.724427e+00 1.863562e+00 1.988355e+00 2.100632e+00 2.200880e+00 2.288513e+00 2.360864e+00 2.360864e+00 
3.210488e+00 6.420976e+00 6.421027e+00 3.458781e+00 3.104699e+00 2.784603e+00 2.490434e+00 2.231783e+00 2.007401e+00 1.812432e+00 1.641617e+00 1.490402e+00 1.355072e+00 1.232882e+00 1.121734e+00 1.020189e+00 9.285825e-01 8.212944e-01 8.808064e-01 
-6.420976e+00 -6.420976e+00 -6.421027e+00 -6.393150e+00 -6.231294e+00 -5.998277e+00 -5.747845e+00 -5.507013e+00 -5.286784e+00 -5.089745e+00 -4.914722e+00 -4.758971e+00 -4.619890e+00 -4.494991e+00 -4.382787e+00 -4.282450e+00 -4.194904e+00 -4.122477e+00 -4.122477e+00 
</DataArray>
</PointData>
</Piece>
</StructuredGrid>
</VTKFile>
