<?xml version="1.0"?>
<VTKFile type="StructuredGrid">
<StructuredGrid WholeExtent="0 318 0 62 0 0 ">
<Piece Extent="0 318 0 62 0 0 ">
<Points>
<DataArray type="Float64" format="ascii" NumberOfComponents="3">
0.000000e+00 0.000000e+00 0.000000e+00
1.572327e-02 0.000000e+00 0.000000e+00
3.144654e-02 0.000000e+00 0.000000e+00
4.716981e-02 0.000000e+00 0.000000e+00
6.289308e-02 0.000000e+00 0.000000e+00
7.861635e-02 0.000000e+00 0.000000e+00
9.433962e-02 0.000000e+00 0.000000e+00
1.100629e-01 0.000000e+00 0.000000e+00
1.257862e-01 0.000000e+00 0.000000e+00
1.415094e-01 0.000000e+00 0.000000e+00
1.572327e-01 0.000000e+00 0.000000e+00
1.729560e-01 0.000000e+00 0.000000e+00
1.886792e-01 0.000000e+00 0.000000e+00
2.044025e-01 0.000000e+00 0.000000e+00
2.201258e-01 0.000000e+00 0.000000e+00
2.358491e-01 0.000000e+00 0.000000e+00
2.515723e-01 0.000000e+00 0.000000e+00
2.672956e-01 0.000000e+00 0.000000e+00
2.830189e-01 0.000000e+00 0.000000e+00
2.987421e-01 0.000000e+00 0.000000e+00
3.144654e-01 0.000000e+00 0.000000e+00
3.301887e-01 0.000000e+00 0.000000e+00
3.459119e-01 0.000000e+00 0.000000e+00
3.616352e-01 0.000000e+00 0.000000e+00
3.773585e-01 0.000000e+00 0.000000e+00
3.930818e-01 0.000000e+00 0.000000e+00
4.088050e-01 0.000000e+00 0.000000e+00
4.245283e-01 0.000000e+00 0.000000e+00
4.402516e-01 0.000000e+00 0.000000e+00
4.559748e-01 0.000000e+00 0.000000e+00
4.716981e-01 0.000000e+00 0.000000e+00
4.874214e-01 0.000000e+00 0.000000e+00
5.031447e-01 0.000000e+00 0.000000e+00
5.188679e-01 0.000000e+00 0.000000e+00
5.345912e-01 0.000000e+00 0.000000e+00
5.503145e-01 0.000000e+00 0.000000e+00
5.660377e-01 0.000000e+00 0.000000e+00
5.817610e-01 0.000000e+00 0.000000e+00
5.974843e-01 0.000000e+00 0.000000e+00
6.132075e-01 0.000000e+00 0.000000e+00
6.289308e-01 0.000000e+00 0.000000e+00
6.446541e-01 0.000000e+00 0.000000e+00
6.603774e-01 0.000000e+00 0.000000e+00
6.761006e-01 0.000000e+00 0.000000e+00
6.918239e-01 0.000000e+00 0.000000e+00
7.075472e-01 0.000000e+00 0.000000e+00
7.232704e-01 0.000000e+00 0.000000e+00
7.389937e-01 0.000000e+00 0.000000e+00
7.547170e-01 0.000000e+00 0.000000e+00
7.704403e-01 0.000000e+00 0.000000e+00
7.861635e-01 0.000000e+00 0.000000e+00
8.018868e-01 0.000000e+00 0.000000e+00
8.176101e-01 0.000000e+00 0.000000e+00
8.333333e-01 0.000000e+00 0.000000e+00
8.490566e-01 0.000000e+00 0.000000e+00
8.647799e-01 0.000000e+00 0.000000e+00
8.805031e-01 0.000000e+00 0.000000e+00
8.962264e-01 0.000000e+00 0.000000e+00
9.119497e-01 0.000000e+00 0.000000e+00
9.276730e-01 0.000000e+00 0.000000e+00
9.433962e-01 0.000000e+00 0.000000e+00
9.591195e-01 0.000000e+00 0.000000e+00
9.748428e-01 0.000000e+00 0.000000e+00
9.905660e-01 0.000000e+00 0.000000e+00
1.006289e+00 0.000000e+00 0.000000e+00
1.022013e+00 0.000000e+00 0.000000e+00
1.037736e+00 0.000000e+00 0.000000e+00
1.053459e+00 0.000000e+00 0.000000e+00
1.069182e+00 0.000000e+00 0.000000e+00
1.084906e+00 0.000000e+00 0.000000e+00
1.100629e+00 0.000000e+00 0.000000e+00
1.116352e+00 0.000000e+00 0.000000e+00
1.132075e+00 0.000000e+00 0.000000e+00
1.147799e+00 0.000000e+00 0.000000e+00
1.163522e+00 0.000000e+00 0.000000e+00
1.179245e+00 0.000000e+00 0.000000e+00
1.194969e+00 0.000000e+00 0.000000e+00
1.210692e+00 0.000000e+00 0.000000e+00
1.226415e+00 0.000000e+00 0.000000e+00
1.242138e+00 0.000000e+00 0.000000e+00
1.257862e+00 0.000000e+00 0.000000e+00
1.273585e+00 0.000000e+00 0.000000e+00
1.289308e+00 0.000000e+00 0.000000e+00
1.305031e+00 0.000000e+00 0.000000e+00
1.320755e+00 0.000000e+00 0.000000e+00
1.336478e+00 0.000000e+00 0.000000e+00
1.352201e+00 0.000000e+00 0.000000e+00
1.367925e+00 0.000000e+00 0.000000e+00
1.383648e+00 0.000000e+00 0.000000e+00
1.399371e+00 0.000000e+00 0.000000e+00
1.415094e+00 0.000000e+00 0.000000e+00
1.430818e+00 0.000000e+00 0.000000e+00
1.446541e+00 0.000000e+00 0.000000e+00
1.462264e+00 0.000000e+00 0.000000e+00
1.477987e+00 0.000000e+00 0.000000e+00
1.493711e+00 0.000000e+00 0.000000e+00
1.509434e+00 0.000000e+00 0.000000e+00
1.525157e+00 0.000000e+00 0.000000e+00
1.540881e+00 0.000000e+00 0.000000e+00
1.556604e+00 0.000000e+00 0.000000e+00
1.572327e+00 0.000000e+00 0.000000e+00
1.588050e+00 0.000000e+00 0.000000e+00
1.603774e+00 0.000000e+00 0.000000e+00
1.619497e+00 0.000000e+00 0.000000e+00
1.635220e+00 0.000000e+00 0.000000e+00
1.650943e+00 0.000000e+00 0.000000e+00
1.666667e+00 0.000000e+00 0.000000e+00
1.682390e+00 0.000000e+00 0.000000e+00
1.698113e+00 0.000000e+00 0.000000e+00
1.713836e+00 0.000000e+00 0.000000e+00
1.729560e+00 0.000000e+00 0.000000e+00
1.745283e+00 0.000000e+00 0.000000e+00
1.761006e+00 0.000000e+00 0.000000e+00
1.776730e+00 0.000000e+00 0.000000e+00
1.792453e+00 0.000000e+00 0.000000e+00
1.808176e+00 0.000000e+00 0.000000e+00
1.823899e+00 0.000000e+00 0.000000e+00
1.839623e+00 0.000000e+00 0.000000e+00
1.855346e+00 0.000000e+00 0.000000e+00
1.871069e+00 0.000000e+00 0.000000e+00
1.886792e+00 0.000000e+00 0.000000e+00
1.902516e+00 0.000000e+00 0.000000e+00
1.918239e+00 0.000000e+00 0.000000e+00
1.933962e+00 0.000000e+00 0.000000e+00
1.949686e+00 0.000000e+00 0.000000e+00
1.965409e+00 0.000000e+00 0.000000e+00
1.981132e+00 0.000000e+00 0.000000e+00
1.996855e+00 0.000000e+00 0.000000e+00
2.012579e+00 0.000000e+00 0.000000e+00
2.028302e+00 0.000000e+00 0.000000e+00
2.044025e+00 0.000000e+00 0.000000e+00
2.059748e+00 0.000000e+00 0.000000e+00
2.075472e+00 0.000000e+00 0.000000e+00
2.091195e+00 0.000000e+00 0.000000e+00
2.106918e+00 0.000000e+00 0.000000e+00
2.122642e+00 0.000000e+00 0.000000e+00
2.138365e+00 0.000000e+00 0.000000e+00
2.154088e+00 0.000000e+00 0.000000e+00
2.169811e+00 0.000000e+00 0.000000e+00
2.185535e+00 0.000000e+00 0.000000e+00
2.201258e+00 0.000000e+00 0.000000e+00
2.216981e+00 0.000000e+00 0.000000e+00
2.232704e+00 0.000000e+00 0.000000e+00
2.248428e+00 0.000000e+00 0.000000e+00
2.264151e+00 0.000000e+00 0.000000e+00
2.279874e+00 0.000000e+00 0.000000e+00
2.295597e+00 0.000000e+00 0.000000e+00
2.311321e+00 0.000000e+00 0.000000e+00
2.327044e+00 0.000000e+00 0.000000e+00
2.342767e+00 0.000000e+00 0.000000e+00
2.358491e+00 0.000000e+00 0.000000e+00
2.374214e+00 0.000000e+00 0.000000e+00
2.389937e+00 0.000000e+00 0.000000e+00
2.405660e+00 0.000000e+00 0.000000e+00
2.421384e+00 0.000000e+00 0.000000e+00
2.437107e+00 0.000000e+00 0.000000e+00
2.452830e+00 0.000000e+00 0.000000e+00
2.468553e+00 0.000000e+00 0.000000e+00
2.484277e+00 0.000000e+00 0.000000e+00
2.500000e+00 0.000000e+00 0.000000e+00
2.515723e+00 0.000000e+00 0.000000e+00
2.531447e+00 0.000000e+00 0.000000e+00
2.547170e+00 0.000000e+00 0.000000e+00
2.562893e+00 0.000000e+00 0.000000e+00
2.578616e+00 0.000000e+00 0.000000e+00
2.594340e+00 0.000000e+00 0.000000e+00
2.610063e+00 0.000000e+00 0.000000e+00
2.625786e+00 0.000000e+00 0.000000e+00
2.641509e+00 0.000000e+00 0.000000e+00
2.657233e+00 0.000000e+00 0.000000e+00
2.672956e+00 0.000000e+00 0.000000e+00
2.688679e+00 0.000000e+00 0.000000e+00
2.704403e+00 0.000000e+00 0.000000e+00
2.720126e+00 0.000000e+00 0.000000e+00
2.735849e+00 0.000000e+00 0.000000e+00
2.751572e+00 0.000000e+00 0.000000e+00
2.767296e+00 0.000000e+00 0.000000e+00
2.783019e+00 0.000000e+00 0.000000e+00
2.798742e+00 0.000000e+00 0.000000e+00
2.814465e+00 0.000000e+00 0.000000e+00
2.830189e+00 0.000000e+00 0.000000e+00
2.845912e+00 0.000000e+00 0.000000e+00
2.861635e+00 0.000000e+00 0.000000e+00
2.877358e+00 0.000000e+00 0.000000e+00
2.893082e+00 0.000000e+00 0.000000e+00
2.908805e+00 0.000000e+00 0.000000e+00
2.924528e+00 0.000000e+00 0.000000e+00
2.940252e+00 0.000000e+00 0.000000e+00
2.955975e+00 0.000000e+00 0.000000e+00
2.971698e+00 0.000000e+00 0.000000e+00
2.987421e+00 0.000000e+00 0.000000e+00
3.003145e+00 0.000000e+00 0.000000e+00
3.018868e+00 0.000000e+00 0.000000e+00
3.034591e+00 0.000000e+00 0.000000e+00
3.050314e+00 0.000000e+00 0.000000e+00
3.066038e+00 0.000000e+00 0.000000e+00
3.081761e+00 0.000000e+00 0.000000e+00
3.097484e+00 0.000000e+00 0.000000e+00
3.113208e+00 0.000000e+00 0.000000e+00
3.128931e+00 0.000000e+00 0.000000e+00
3.144654e+00 0.000000e+00 0.000000e+00
3.160377e+00 0.000000e+00 0.000000e+00
3.176101e+00 0.000000e+00 0.000000e+00
3.191824e+00 0.000000e+00 0.000000e+00
3.207547e+00 0.000000e+00 0.000000e+00
3.223270e+00 0.000000e+00 0.000000e+00
3.238994e+00 0.000000e+00 0.000000e+00
3.254717e+00 0.000000e+00 0.000000e+00
3.270440e+00 0.000000e+00 0.000000e+00
3.286164e+00 0.000000e+00 0.000000e+00
3.301887e+00 0.000000e+00 0.000000e+00
3.317610e+00 0.000000e+00 0.000000e+00
3.333333e+00 0.000000e+00 0.000000e+00
3.349057e+00 0.000000e+00 0.000000e+00
3.364780e+00 0.000000e+00 0.000000e+00
3.380503e+00 0.000000e+00 0.000000e+00
3.396226e+00 0.000000e+00 0.000000e+00
3.411950e+00 0.000000e+00 0.000000e+00
3.427673e+00 0.000000e+00 0.000000e+00
3.443396e+00 0.000000e+00 0.000000e+00
3.459119e+00 0.000000e+00 0.000000e+00
3.474843e+00 0.000000e+00 0.000000e+00
3.490566e+00 0.000000e+00 0.000000e+00
3.506289e+00 0.000000e+00 0.000000e+00
3.522013e+00 0.000000e+00 0.000000e+00
3.537736e+00 0.000000e+00 0.000000e+00
3.553459e+00 0.000000e+00 0.000000e+00
3.569182e+00 0.000000e+00 0.000000e+00
3.584906e+00 0.000000e+00 0.000000e+00
3.600629e+00 0.000000e+00 0.000000e+00
3.616352e+00 0.000000e+00 0.000000e+00
3.632075e+00 0.000000e+00 0.000000e+00
3.647799e+00 0.000000e+00 0.000000e+00
3.663522e+00 0.000000e+00 0.000000e+00
3.679245e+00 0.000000e+00 0.000000e+00
3.694969e+00 0.000000e+00 0.000000e+00
3.710692e+00 0.000000e+00 0.000000e+00
3.726415e+00 0.000000e+00 0.000000e+00
3.742138e+00 0.000000e+00 0.000000e+00
3.757862e+00 0.000000e+00 0.000000e+00
3.773585e+00 0.000000e+00 0.000000e+00
3.789308e+00 0.000000e+00 0.000000e+00
3.805031e+00 0.000000e+00 0.000000e+00
3.820755e+00 0.000000e+00 0.000000e+00
3.836478e+00 0.000000e+00 0.000000e+00
3.852201e+00 0.000000e+00 0.000000e+00
3.867925e+00 0.000000e+00 0.000000e+00
3.883648e+00 0.000000e+00 0.000000e+00
3.899371e+00 0.000000e+00 0.000000e+00
3.915094e+00 0.000000e+00 0.000000e+00
3.930818e+00 0.000000e+00 0.000000e+00
[...]
<PointData>
<DataArray Name="Velocity" type="Float64" format="ascii" NumberOfComponents="3">
0.000000e+00 0.000000e+00 0
0.000000e+00 0.000000e+00 0
0.000000e+00 0.000000e+00 0
5.628587e-20 0.000000e+00 0
0.000000e+00 0.000000e+00 0
0.000000e+00 0.000000e+00 0
-5.254151e-20 0.000000e+00 0
0.000000e+00 0.000000e+00 0
0.000000e+00 0.000000e+00 0
0.000000e+00 0.000000e+00 0
0.000000e+00 0.000000e+00 0
0.000000e+00 0.000000e+00 0
1.877147e-19 0.000000e+00 0
0.000000e+00 0.000000e+00 0
0.000000e+00 0.000000e+00 0
0.000000e+00 0.000000e+00 0
0.000000e+00 0.000000e+00 0
0.000000e+00 0.000000e+00 0
0.000000e+00 0.000000e+00 0
0.000000e+00 0.000000e+00 0
0.000000e+00 0.000000e+00 0
0.000000e+00 0.000000e+00 0
0.000000e+00 0.000000e+00 0
0.000000e+00 0.000000e+00 0
-7.523218e-20 0.000000e+00 0
0.000000e+00 0.000000e+00 0
0.000000e+00 0.000000e+00 0
0.000000e+00 0.000000e+00 0
0.000000e+00 0.000000e+00 0
0.000000e+00 0.000000e+00 0
0.000000e+00 0.000000e+00 0
0.000000e+00 0.000000e+00 0
0.000000e+00 0.000000e+00 0
0.000000e+00 0.000000e+00 0
0.000000e+00 0.000000e+00 0
0.000000e+00 0.000000e+00 0
0.000000e+00 0.000000e+00 0
0.000000e+00 0.000000e+00 0
0.000000e+00 0.000000e+00 0
0.000000e+00 0.000000e+00 0
0.000000e+00 0.000000e+00 0
0.000000e+00 0.000000e+00 0
0.000000e+00 0.000000e+00 0
0.000000e+00 0.000000e+00 0
0.000000e+00 0.000000e+00 0
0.000000e+00 0.000000e+00 0
0.000000e+00 0.000000e+00 0
0.000000e+00 0.000000e+00 0
1.150593e-18 0.000000e+00 0
0.000000e+00 0.000000e+00 0
0.000000e+00 0.000000e+00 0
0.000000e+00 0.000000e+00 0
0.000000e+00 0.000000e+00 0
0.000000e+00 0.000000e+00 0
0.000000e+00 0.000000e+00 0
0.000000e+00 0.000000e+00 0
0.000000e+00 0.000000e+00 0
0.000000e+00 0.000000e+00 0
0.000000e+00 0.000000e+00 0
0.000000e+00 0.000000e+00 0
0.000000e+00 0.000000e+00 0
0.000000e+00 0.000000e+00 0
0.000000e+00 0.000000e+00 0
0.000000e+00 0.000000e+00 0
0.000000e+00 0.000000e+00 0
0.000000e+00 0.000000e+00 0
0.000000e+00 0.000000e+00 0
0.000000e+00 0.000000e+00 0
0.000000e+00 0.000000e+00 0
0.000000e+00 0.000000e+00 0
0.000000e+00 0.000000e+00 0
0.000000e+00 0.000000e+00 0
0.000000e+00 0.000000e+00 0
0.000000e+00 0.000000e+00 0
0.000000e+00 0.000000e+00 0
0.000000e+00 0.000000e+00 0
0.000000e+00 0.000000e+00 0
0.000000e+00 0.000000e+00 0
0.000000e+00 0.000000e+00 0
0.000000e+00 0.000000e+00 0
0.000000e+00 0.000000e+00 0
0.000000e+00 0.000000e+00 0
0.000000e+00 0.000000e+00 0
0.000000e+00 0.000000e+00 0
0.000000e+00 0.000000e+00 0
0.000000e+00 0.000000e+00 0
0.000000e+00 0.000000e+00 0
0.000000e+00 0.000000e+00 0
0.000000e+00 0.000000e+00 0
0.000000e+00 0.000000e+00 0
0.000000e+00 0.000000e+00 0
0.000000e+00 0.000000e+00 0
0.000000e+00 0.000000e+00 0
0.000000e+00 0.000000e+00 0
0.000000e+00 0.000000e+00 0
0.000000e+00 0.000000e+00 0
0.000000e+00 0.000000e+00 0
0.000000e+00 0.000000e+00 0
0.000000e+00 0.000000e+00 0
0.000000e+00 0.000000e+00 0
0.000000e+00 0.000000e+00 0
0.000000e+00 0.000000e+00 0
0.000000e+00 0.000000e+00 0
0.000000e+00 0.000000e+00 0
0.000000e+00 0.000000e+00 0
0.000000e+00 0.000000e+00 0
0.000000e+00 0.000000e+00 0
0.000000e+00 0.000000e+00 0
0.000000e+00 0.000000e+00 0
0.000000e+00 0.000000e+00 0
0.000000e+00 0.000000e+00 0
0.000000e+00 0.000000e+00 0
0.000000e+00 0.000000e+00 0
0.000000e+00 0.000000e+00 0
0.000000e+00 0.000000e+00 0
0.000000e+00 0.000000e+00 0
0.000000e+00 0.000000e+00 0
0.000000e+00 0.000000e+00 0
0.000000e+00 0.000000e+00 0
0.000000e+00 0.000000e+00 0
0.000000e+00 0.000000e+00 0
0.000000e+00 0.000000e+00 0
0.000000e+00 0.000000e+00 0
0.000000e+00 0.000000e+00 0
0.000000e+00 0.000000e+00 0
0.000000e+00 0.000000e+00 0
0.000000e+00 0.000000e+00 0
0.000000e+00 0.000000e+00 0
0.000000e+00 0.000000e+00 0
0.000000e+00 0.000000e+00 0
1.079156e-17 0.000000e+00 0
0.000000e+00 0.000000e+00 0
0.000000e+00 0.000000e+00 0
0.000000e+00 0.000000e+00 0
1.643937e-17 0.000000e+00 0
0.000000e+00 0.000000e+00 0
0.000000e+00 0.000000e+00 0
0.000000e+00 0.000000e+00 0
-1.568987e-18 0.000000e+00 0
0.000000e+00 0.000000e+00 0
0.000000e+00 0.000000e+00 0
0.000000e+00 0.000000e+00 0
3.966366e-17 0.000000e+00 0
0.000000e+00 0.000000e+00 0
0.000000e+00 0.000000e+00 0
0.000000e+00 0.000000e+00 0
3.697223e-17 0.000000e+00 0
0.000000e+00 0.000000e+00 0
0.000000e+00 0.000000e+00 0
0.000000e+00 0.000000e+00 0
5.479303e-17 0.000000e+00 0
0.000000e+00 0.000000e+00 0
0.000000e+00 0.000000e+00 0
0.000000e+00 0.000000e+00 0
-1.372533e-17 0.000000e+00 0
0.000000e+00 0.000000e+00 0
0.000000e+00 0.000000e+00 0
0.000000e+00 0.000000e+00 0
-1.749820e-17 0.000000e+00 0
0.000000e+00 0.000000e+00 0
0.000000e+00 0.000000e+00 0
7.719689e-19 0.000000e+00 0
0.000000e+00 0.000000e+00 0
0.000000e+00 0.000000e+00 0
0.000000e+00 0.000000e+00 0
-1.102228e-17 0.000000e+00 0
0.000000e+00 0.000000e+00 0
0.000000e+00 0.000000e+00 0
0.000000e+00 0.000000e+00 0
-2.137863e-18 0.000000e+00 0
0.000000e+00 0.000000e+00 0
0.000000e+00 0.000000e+00 0
0.000000e+00 0.000000e+00 0
6.897971e-18 0.000000e+00 0
0.000000e+00 0.000000e+00 0
0.000000e+00 0.000000e+00 0
0.000000e+00 0.000000e+00 0
1.985394e-18 0.000000e+00 0
0.000000e+00 0.000000e+00 0
0.000000e+00 0.000000e+00 0
0.000000e+00 0.000000e+00 0
1.423141e-18 0.000000e+00 0
0.000000e+00 0.000000e+00 0
0.000000e+00 0.000000e+00 0
0.000000e+00 0.000000e+00 0
2.799597e-18 0.000000e+00 0
0.000000e+00 0.000000e+00 0
0.000000e+00 0.000000e+00 0
0.000000e+00 0.000000e+00 0
1.123466e-17 0.000000e+00 0
0.000000e+00 0.000000e+00 0
0.000000e+00 0.000000e+00 0
2.915146e-18 0.000000e+00 0
0.000000e+00 0.000000e+00 0
0.000000e+00 0.000000e+00 0
0.000000e+00 0.000000e+00 0
-2.411473e-18 0.000000e+00 0
0.000000e+00 0.000000e+00 0
0.000000e+00 0.000000e+00 0
0.000000e+00 0.000000e+00 0
2.483961e-17 0.000000e+00 0
0.000000e+00 0.000000e+00 0
0.000000e+00 0.000000e+00 0
0.000000e+00 0.000000e+00 0
1.814264e-17 0.000000e+00 0
0.000000e+00 0.000000e+00 0
0.000000e+00 0.000000e+00 0
0.000000e+00 0.000000e+00 0
2.244365e-17 0.000000e+00 0
0.000000e+00 0.000000e+00 0
0.000000e+00 0.000000e+00 0
0.000000e+00 0.000000e+00 0
-1.608021e-18 0.000000e+00 0
0.000000e+00 0.000000e+00 0
0.000000e+00 0.000000e+00 0
0.000000e+00 0.000000e+00 0
2.003774e-17 0.000000e+00 0
0.000000e+00 0.000000e+00 0
0.000000e+00 0.000000e+00 0
0.000000e+00 0.000000e+00 0
2.456953e-17 0.000000e+00 0
0.000000e+00 0.000000e+00 0
0.000000e+00 0.000000e+00 0
0.000000e+00 0.000000e+00 0
-1.132290e-17 0.000000e+00 0
0.000000e+00 0.000000e+00 0
0.000000e+00 0.000000e+00 0
-1.273070e-17 0.000000e+00 0
0.000000e+00 0.000000e+00 0
0.000000e+00 0.000000e+00 0
0.000000e+00 0.000000e+00 0
2.642922e-17 0.000000e+00 0
0.000000e+00 0.000000e+00 0
0.000000e+00 0.000000e+00 0
0.000000e+00 0.000000e+00 0
-3.738748e-18 0.000000e+00 0
0.000000e+00 0.000000e+00 0
0.000000e+00 0.000000e+00 0
0.000000e+00 0.000000e+00 0
2.120769e-17 0.000000e+00 0
0.000000e+00 0.000000e+00 0
0.000000e+00 0.000000e+00 0
0.000000e+00 0.000000e+00 0
4.772483e-18 0.000000e+00 0
0.000000e+00 0.000000e+00 0
0.000000e+00 0.000000e+00 0
0.000000e+00 0.000000e+00 0
-9.448405e-18 0.000000e+00 0
0.000000e+00 0.000000e+00 0
0.000000e+00 0.000000e+00 0
0.000000e+00 0.000000e+00 0
-4.289728e-18 0.000000e+00 0
0.000000e+00 0.000000e+00 0
0.000000e+00 0.000000e+00 0
0.000000e+00 0.000000e+00 0
0.000000e+00 0.000000e+00 0
0.000000e+00 0.000000e+00 0
0.000000e+00 0.000000e+00 0
0.000000e+00 0.000000e+00 0
0.000000e+00 0.000000e+00 0
0.000000e+00 0.000000e+00 0
0.000000e+00 0.000000e+00 0
0.000000e+00 0.000000e+00 0
0.000000e+00 0.000000e+00 0
0.000000e+00 0.000000e+00 0
0.000000e+00 0.000000e+00 0
0.000000e+00 0.000000e+00 0
0.000000e+00 0.000000e+00 0
0.000000e+00 0.000000e+00 0
0.000000e+00 0.000000e+00 0
0.000000e+00 0.000000e+00 0
0.000000e+00 0.000000e+00 0
0.000000e+00 0.000000e+00 0
0.000000e+00 0.000000e+00 0
0.000000e+00 0.000000e+00 0
0.000000e+00 0.000000e+00 0
0.000000e+00 0.000000e+00 0
0.000000e+00 0.000000e+00 0
0.000000e+00 0.000000e+00 0
0.000000e+00 0.000000e+00 0
0.000000e+00 0.000000e+00 0
0.000000e+00 0.000000e+00 0
0.000000e+00 0.000000e+00 0
0.000000e+00 0.000000e+00 0
0.000000e+00 0.000000e+00 0
0.000000e+00 0.000000e+00 0
0.000000e+00 0.000000e+00 0
0.000000e+00 0.000000e+00 0
0.000000e+00 0.000000e+00 0
0.000000e+00 0.000000e+00 0
0.000000e+00 0.000000e+00 0
0.000000e+00 0.000000e+00 0
0.000000e+00 0.000000e+00 0
0.000000e+00 0.000000e+00 0
0.000000e+00 0.000000e+00 0
0.000000e+00 0.000000e+00 0
0.000000e+00 0.000000e+00 0
0.000000e+00 0.000000e+00 0
0.000000e+00 0.000000e+00 0
0.000000e+00 0.000000e+00 0
0.000000e+00 0.000000e+00 0
0.000000e+00 0.000000e+00 0
0.000000e+00 0.000000e+00 0
0.000000e+00 0.000000e+00 0
0.000000e+00 0.000000e+00 0
0.000000e+00 0.000000e+00 0
0.000000e+00 0.000000e+00 0
0.000000e+00 0.000000e+00 0
0.000000e+00 0.000000e+00 0
0.000000e+00 0.000000e+00 0
0.000000e+00 0.000000e+00 0
0.000000e+00 0.000000e+00 0
0.000000e+00 0.000000e+00 0
0.000000e+00 0.000000e+00 0
0.000000e+00 0.000000e+00 0
0.000000e+00 0.000000e+00 0
0.000000e+00 0.000000e+00 0
0.000000e+00 0.000000e+00 0
0.000000e+00 0.000000e+00 0
0.000000e+00 0.000000e+00 0
-9.585712e-02 -3.889053e-01 0
-1.556885e-02 -9.883655e-03 0
-1.425809e-02 -9.484710e-04 0
-1.343881e-02 4.309563e-04 0
-1.307329e-02 5.969019e-04 0
-1.270146e-02 6.071468e-04 0
-1.233176e-02 6.013508e-04 0
-1.195152e-02 5.938227e-04 0
-1.156276e-02 5.858027e-04 0
-1.116477e-02 5.772700e-04 0
-1.075753e-02 5.681967e-04 0
-1.034083e-02 5.585532e-04 0
-9.914522e-03 5.483087e-04 0
-9.478413e-03 5.374248e-04 0
-9.032303e-03 5.258538e-04 0
-8.575980e-03 5.135354e-04 0
-8.109213e-03 5.003946e-04 0
-7.631777e-03 4.863390e-04 0
-7.143483e-03 4.712572e-04 0
-6.644289e-03 4.550189e-04 0
-6.134566e-03 4.374822e-04 0
-5.615805e-03 4.185155e-04 0
-5.092611e-03 3.980555e-04 0
-4.578770e-03 3.762540e-04 0
-4.117396e-03 3.537962e-04 0
-3.851974e-03 3.322871e-04 0
-4.258844e-03 3.126378e-04 0
-6.567049e-03 2.851235e-04 0
-1.205913e-02 2.277895e-04 0
-1.934722e-02 1.499498e-04 0
-2.581225e-02 9.365265e-05 0
8.087439e-01 -8.567313e-04 0
0.000000e+00 -2.537033e-17 0
-1.367055e-03 1.094549e-03 0
-4.440495e-04 -1.500983e-03 0
4.178985e-03 -4.887315e-03 0
1.143804e-02 -7.210308e-03 0
2.021304e-02 -8.460934e-03 0
2.977442e-02 -9.053951e-03 0
3.971475e-02 -9.298916e-03 0
4.982964e-02 -9.380250e-03 0
6.002702e-02 -9.393895e-03 0
7.026869e-02 -9.380845e-03 0
8.053544e-02 -9.350193e-03 0
9.080733e-02 -9.293563e-03 0
1.010533e-01 -9.193641e-03 0
1.112258e-01 -9.028995e-03 0
1.212588e-01 -8.776693e-03 0
1.310672e-01 -8.413737e-03 0
1.405470e-01 -7.917972e-03 0
1.495771e-01 -7.268940e-03 0
1.580207e-01 -6.449142e-03 0
1.657289e-01 -5.446363e-03 0
1.725453e-01 -4.258485e-03 0
1.783130e-01 -2.904341e-03 0
1.828826e-01 -1.452264e-03 0
1.861177e-01 -3.774310e-05 0
1.878875e-01 1.321075e-03 0
1.881178e-01 2.686036e-03 0
1.867991e-01 4.027265e-03 0
1.839816e-01 5.295486e-03 0
1.797540e-01 6.445085e-03 0
1.742451e-01 7.431352e-03 0
1.676249e-01 8.211180e-03 0
1.601032e-01 8.745647e-03 0
1.519257e-01 9.003181e-03 0
1.433670e-01 8.962878e-03 0
1.347208e-01 8.617865e-03 0
1.262881e-01 7.978480e-03 0
1.183650e-01 7.072879e-03 0
1.112325e-01 5.934494e-03 0
1.051550e-01 4.554762e-03 0
1.003767e-01 2.831211e-03 0
9.707420e-02 7.274069e-04 0
9.528696e-02 -1.249967e-03 0
9.507078e-02 -2.653378e-03 0
9.634573e-02 -3.646582e-03 0
9.888018e-02 -4.418892e-03 0
1.024309e-01 -5.024264e-03 0
1.067652e-01 -5.483972e-03 0
1.116792e-01 -5.814739e-03 0
1.169846e-01 -6.032573e-03 0
1.224801e-01 -6.171327e-03 0
1.280533e-01 -6.217210e-03 0
1.335049e-01 -6.128508e-03 0
1.382366e-01 -6.110572e-03 0
1.417781e-01 -6.310815e-03 0
1.455949e-01 -5.157069e-03 0
1.489602e-01 -1.019759e-03 0
1.361773e-01 -1.714588e-03 0
1.071349e-01 -1.561290e-02 0
7.030813e-02 -1.477004e-02 0
3.043356e-02 1.547126e-02 0
-1.798227e-02 4.325174e-02 0
-7.383910e-02 5.545560e-02 0
-1.333380e-01 5.953369e-02 0
-1.934955e-01 5.913519e-02 0
-2.523886e-01 5.730848e-02 0
-3.091226e-01 5.538825e-02 0
-3.630641e-01 5.289749e-02 0
-4.137556e-01 4.994232e-02 0
-4.609133e-01 4.669607e-02 0
-5.044116e-01 4.331986e-02 0
-5.442576e-01 3.994767e-02 0
-5.805650e-01 3.668446e-02 0
-6.135269e-01 3.360779e-02 0
-6.433919e-01 3.077087e-02 0
-6.704433e-01 2.820610e-02 0
-6.949811e-01 2.592877e-02 0
-7.173083e-01 2.394063e-02 0
-7.377198e-01 2.223308e-02 0
-7.564947e-01 2.079001e-02 0
-7.738907e-01 1.959017e-02 0
-7.901405e-01 1.860911e-02 0
-8.054499e-01 1.782079e-02 0
-8.199977e-01 1.719874e-02 0
-8.339357e-01 1.671702e-02 0
-8.473901e-01 1.635087e-02 0
-8.604627e-01 1.607705e-02 0
-8.732334e-01 1.587415e-02 0
-8.857614e-01 1.572249e-02 0
-8.980878e-01 1.560416e-02 0
-9.102363e-01 1.550276e-02 0
-9.222157e-01 1.540335e-02 0
-9.340205e-01 1.529240e-02 0
-9.456327e-01 1.515788e-02 0
-9.570231e-01 1.498955e-02 0
-9.681535e-01 1.477918e-02 0
-9.789784e-01 1.452080e-02 0
-9.894478e-01 1.421060e-02 0
-9.995092e-01 1.384649e-02 0
-1.009109e+00 1.342717e-02 0
-1.018193e+00 1.295106e-02 0
-1.026706e+00 1.241520e-02 0
-1.034589e+00 1.181460e-02 0
-1.041775e+00 1.114212e-02 0
-1.048193e+00 1.038865e-02 0
-1.053758e+00 9.543453e-03 0
-1.058377e+00 8.594514e-03 0
-1.061941e+00 7.529122e-03 0
-1.064331e+00 6.335701e-03 0
-1.065411e+00 5.007705e-03 0
-1.065062e+00 3.530267e-03 0
-1.063217e+00 1.899042e-03 0
-1.059781e+00 1.249828e-04 0
-1.054645e+00 -1.801606e-03 0
-1.047703e+00 -3.868869e-03 0
-1.038855e+00 -6.042444e-03 0
-1.028008e+00 -8.302019e-03 0
-1.015086e+00 -1.062870e-02 0
-1.000028e+00 -1.300255e-02 0
-9.827951e-01 -1.540232e-02 0
-9.633662e-01 -1.780597e-02 0
-9.417429e-01 -2.019147e-02 0
-9.179473e-01 -2.253753e-02 0
-8.920208e-01 -2.482357e-02 0
-8.640246e-01 -2.702927e-02 0
-8.340397e-01 -2.913529e-02 0
-8.021653e-01 -3.112461e-02 0
-7.685158e-01 -3.298401e-02 0
-7.332151e-01 -3.470337e-02 0
-6.963952e-01 -3.627344e-02 0
-6.581998e-01 -3.768629e-02 0
-6.187796e-01 -3.893775e-02 0
-5.782838e-01 -4.002543e-02 0
-5.368639e-01 -4.094536e-02 0
-4.946865e-01 -4.170190e-02 0
-4.518986e-01 -4.231194e-02 0
-4.085987e-01 -4.276677e-02 0
-3.649748e-01 -4.306484e-02 0
-3.211773e-01 -4.325714e-02 0
-2.772237e-01 -4.332377e-02 0
-2.332548e-01 -4.322054e-02 0
-1.895116e-01 -4.310908e-02 0
-1.459195e-01 -4.297591e-02 0
-1.023413e-01 -4.250716e-02 0
-5.891256e-02 -4.224703e-02 0
-1.656852e-02 -4.235028e-02 0
2.454688e-02 -4.195401e-02 0
6.451857e-02 -4.021400e-02 0
1.031522e-01 -3.791627e-02 0
1.404746e-01 -3.621911e-02 0
1.765589e-01 -3.483367e-02 0
2.114546e-01 -3.356340e-02 0
2.451869e-01 -3.233410e-02 0
2.777669e-01 -3.111898e-02 0
3.091993e-01 -2.990876e-02 0
3.394871e-01 -2.870102e-02 0
3.686334e-01 -2.749615e-02 0
3.966428e-01 -2.629573e-02 0
4.235220e-01 -2.510181e-02 0
4.492796e-01 -2.391651e-02 0
4.739263e-01 -2.274190e-02 0
4.974747e-01 -2.157988e-02 0
5.199391e-01 -2.043214e-02 0
5.413354e-01 -1.930013e-02 0
5.616806e-01 -1.818507e-02 0
5.809930e-01 -1.708794e-02 0
5.992915e-01 -1.600948e-02 0
6.165960e-01 -1.495026e-02 0
6.329266e-01 -1.391060e-02 0
6.483037e-01 -1.289068e-02 0
6.627479e-01 -1.189049e-02 0
6.762800e-01 -1.090991e-02 0
6.889204e-01 -9.948654e-03 0
7.006894e-01 -9.006377e-03 0
7.116072e-01 -8.082655e-03 0
7.216934e-01 -7.177047e-03 0
7.309676e-01 -6.289153e-03 0
7.394488e-01 -5.418708e-03 0
7.471560e-01 -4.565734e-03 0
7.541082e-01 -3.730822e-03 0
7.603247e-01 -2.915666e-03 0
7.658257e-01 -2.124210e-03 0
7.706332e-01 -1.365253e-03 0
7.747714e-01 -6.605391e-04 0
7.782663e-01 -5.601494e-05 0
7.811361e-01 4.572260e-04 0
7.834051e-01 9.313285e-04 0
7.850956e-01 1.382762e-03 0
7.862283e-01 1.816048e-03 0
7.868244e-01 2.237655e-03 0
7.869147e-01 2.655108e-03 0
7.865335e-01 3.064865e-03 0
7.856996e-01 3.462803e-03 0
7.844226e-01 3.851520e-03 0
7.827087e-01 4.231816e-03 0
7.805656e-01 4.602701e-03 0
7.780027e-01 4.962732e-03 0
7.750310e-01 5.310544e-03 0
7.716625e-01 5.645085e-03 0
7.679103e-01 5.965600e-03 0
7.637877e-01 6.271568e-03 0
7.593084e-01 6.562616e-03 0
7.544865e-01 6.838455e-03 0
7.493361e-01 7.098829e-03 0
7.438715e-01 7.343474e-03 0
7.381074e-01 7.572104e-03 0
7.320586e-01 7.784398e-03 0
7.257404e-01 7.980007e-03 0
7.191683e-01 8.158555e-03 0
7.123581e-01 8.319648e-03 0
7.053261e-01 8.462880e-03 0
6.980891e-01 8.587842e-03 0
6.906640e-01 8.694129e-03 0
6.830683e-01 8.781353e-03 0
6.753201e-01 8.849153e-03 0
6.674374e-01 8.897201e-03 0
6.594388e-01 8.925222e-03 0
6.513434e-01 8.932996e-03 0
6.431703e-01 8.920371e-03 0
6.349387e-01 8.887276e-03 0
6.266684e-01 8.833727e-03 0
6.183787e-01 8.759835e-03 0
6.100895e-01 8.665815e-03 0
6.018200e-01 8.551992e-03 0
5.935897e-01 8.418808e-03 0
5.854176e-01 8.266822e-03 0
5.773224e-01 8.096716e-03 0
5.693222e-01 7.909299e-03 0
5.614346e-01 7.705502e-03 0
5.536766e-01 7.486380e-03 0
5.460643e-01 7.253106e-03 0
5.386130e-01 7.006967e-03 0
5.313368e-01 6.749353e-03 0
5.242490e-01 6.481749e-03 0
5.173616e-01 6.205713e-03 0
5.106853e-01 5.922869e-03 0
5.042297e-01 5.634875e-03 0
4.980031e-01 5.343409e-03 0
4.920122e-01 5.050137e-03 0
4.862625e-01 4.756693e-03 0
4.807584e-01 4.464651e-03 0
4.755025e-01 4.175499e-03 0
4.704968e-01 3.890618e-03 0
4.657415e-01 3.611260e-03 0
4.612362e-01 3.338534e-03 0
4.569793e-01 3.073385e-03 0
4.529683e-01 2.816593e-03 0
4.492001e-01 2.568755e-03 0
4.456707e-01 2.330284e-03 0
4.423759e-01 2.101392e-03 0
4.393110e-01 1.882071e-03 0
4.364713e-01 1.672116e-03 0
4.338520e-01 1.471332e-03 0
4.314486e-01 1.279901e-03 0
4.292577e-01 1.097337e-03 0
4.272799e-01 9.149718e-04 0
4.255241e-01 6.976092e-04 0
4.240071e-01 3.783808e-04 0
4.227316e-01 -3.564017e-05 0
4.216722e-01 -4.046944e-04 0
4.207962e-01 -6.309826e-04 0
4.200683e-01 -7.314758e-04 0
4.194582e-01 -7.506553e-04 0
4.189437e-01 -7.276506e-04 0
4.185096e-01 -6.884609e-04 0
4.181470e-01 -6.475345e-04 0
4.178514e-01 -6.117771e-04 0
4.176238e-01 -5.841853e-04 0
4.174735e-01 -5.661317e-04 0
4.174193e-01 -5.604400e-04 0
4.174736e-01 -5.679065e-04 0
4.176273e-01 -5.790206e-04 0
4.178626e-01 -5.812418e-04 0
4.181589e-01 -5.686022e-04 0
4.184954e-01 -5.400063e-04 0
4.188526e-01 -4.966076e-04 0
4.192132e-01 -4.401052e-04 0
4.195622e-01 -3.718185e-04 0
4.198864e-01 -2.923865e-04 0
4.201728e-01 -2.023293e-04 0
4.204072e-01 -1.040933e-04 0
4.205734e-01 -7.971191e-06 0
4.206506e-01 9.040348e-05 0
4.206203e-01 1.955760e-04 0
4.204555e-01 3.613330e-04 0
4.204555e-01 4.748130e-04 0
0.000000e+00 0.000000e+00 0
-4.597529e-02 -2.457096e-01 0
-2.386874e-02 -1.924661e-02 0
-2.429128e-02 -1.458165e-03 0
-2.279284e-02 8.547386e-04 0
-2.225046e-02 1.117244e-03 0
-2.156219e-02 1.130910e-03 0
-2.089722e-02 1.120133e-03 0
-2.021260e-02 1.105869e-03 0
-1.951705e-02 1.090684e-03 0
-1.880837e-02 1.074591e-03 0
-1.808687e-02 1.057580e-03 0
-1.735227e-02 1.039590e-03 0
-1.660440e-02 1.020557e-03 0
-1.584305e-02 1.000399e-03 0
-1.506800e-02 9.790155e-04 0
-1.427897e-02 9.562822e-04 0
-1.347574e-02 9.320487e-04 0
-1.265807e-02 9.061355e-04 0
-1.182590e-02 8.783349e-04 0
-1.097956e-02 8.484189e-04 0
-1.012037e-02 8.161643e-04 0
-9.252150e-03 7.814165e-04 0
-8.385296e-03 7.442422e-04 0
-7.548578e-03 7.052691e-04 0
-6.826001e-03 6.662903e-04 0
-6.474702e-03 6.302095e-04 0
-7.239400e-03 5.937153e-04 0
-1.055787e-02 5.251690e-04 0
-1.666343e-02 3.890130e-04 0
-2.254901e-02 2.338932e-04 0
-2.638618e-02 1.424092e-04 0
8.143746e-01 -1.343140e-03 0
0.000000e+00 -3.989864e-17 0
-2.970945e-04 4.558440e-04 0
2.959189e-03 -5.688955e-03 0
9.316475e-03 -1.218852e-02 0
1.760002e-02 -1.644763e-02 0
2.702512e-02 -1.880937e-02 0
3.710115e-02 -2.000477e-02 0
4.755469e-02 -2.057256e-02 0
5.824695e-02 -2.083624e-02 0
6.911229e-02 -2.096631e-02 0
8.011890e-02 -2.103746e-02 0
9.124577e-02 -2.106845e-02 0
1.024699e-01 -2.104710e-02 0
1.137597e-01 -2.094515e-02 0
1.250714e-01 -2.072675e-02 0
1.363476e-01 -2.035323e-02 0
1.475171e-01 -1.978579e-02 0
1.584953e-01 -1.898739e-02 0
1.691853e-01 -1.792436e-02 0
1.794795e-01 -1.656839e-02 0
1.892624e-01 -1.489927e-02 0
1.984124e-01 -1.290860e-02 0
2.068032e-01 -1.060386e-02 0
2.142984e-01 -8.005948e-03 0
2.207245e-01 -5.133773e-03 0
2.258467e-01 -2.051473e-03 0
2.295296e-01 1.116658e-03 0
2.316647e-01 4.243130e-03 0