<?xml version="1.0"?>
<VTKFile type="StructuredGrid">
<StructuredGrid WholeExtent="0 38 0 6 0 0 ">
<Piece Extent="0 38 0 6 0 0 ">
<Points>
<DataArray type="Float64" format="ascii" NumberOfComponents="3">
0.000000e+00 0.000000e+00 0.000000e+00
1.315789e-01 0.000000e+00 0.000000e+00
2.631579e-01 0.000000e+00 0.000000e+00
3.947368e-01 0.000000e+00 0.000000e+00
5.263158e-01 0.000000e+00 0.000000e+00
6.578947e-01 0.000000e+00 0.000000e+00
7.894737e-01 0.000000e+00 0.000000e+00
9.210526e-01 0.000000e+00 0.000000e+00
1.052632e+00 0.000000e+00 0.000000e+00
1.184211e+00 0.000000e+00 0.000000e+00
1.315789e+00 0.000000e+00 0.000000e+00
1.447368e+00 0.000000e+00 0.000000e+00
1.578947e+00 0.000000e+00 0.000000e+00
1.710526e+00 0.000000e+00 0.000000e+00
1.842105e+00 0.000000e+00 0.000000e+00
1.973684e+00 0.000000e+00 0.000000e+00
2.105263e+00 0.000000e+00 0.000000e+00
2.236842e+00 0.000000e+00 0.000000e+00
2.368421e+00 0.000000e+00 0.000000e+00
2.500000e+00 0.000000e+00 0.000000e+00
2.631579e+00 0.000000e+00 0.000000e+00
2.763158e+00 0.000000e+00 0.000000e+00
2.894737e+00 0.000000e+00 0.000000e+00
3.026316e+00 0.000000e+00 0.000000e+00
3.157895e+00 0.000000e+00 0.000000e+00
3.289474e+00 0.000000e+00 0.000000e+00
3.421053e+00 0.000000e+00 0.000000e+00
3.552632e+00 0.000000e+00 0.000000e+00
3.684211e+00 0.000000e+00 0.000000e+00
3.815789e+00 0.000000e+00 0.000000e+00
3.947368e+00 0.000000e+00 0.000000e+00
4.078947e+00 0.000000e+00 0.000000e+00
4.210526e+00 0.000000e+00 0.000000e+00
4.342105e+00 0.000000e+00 0.000000e+00
4.473684e+00 0.000000e+00 0.000000e+00
4.605263e+00 0.000000e+00 0.000000e+00
4.736842e+00 0.000000e+00 0.000000e+00
4.868421e+00 0.000000e+00 0.000000e+00
5.000000e+00 0.000000e+00 0.000000e+00
0.000000e+00 1.666667e-01 0.000000e+00
1.315789e-01 1.666667e-01 0.000000e+00
2.631579e-01 1.666667e-01 0.000000e+00
3.947368e-01 1.666667e-01 0.000000e+00
5.263158e-01 1.666667e-01 0.000000e+00
6.578947e-01 1.666667e-01 0.000000e+00
7.894737e-01 1.666667e-01 0.000000e+00
9.210526e-01 1.666667e-01 0.000000e+00
1.052632e+00 1.666667e-01 0.000000e+00
1.184211e+00 1.666667e-01 0.000000e+00
1.315789e+00 1.666667e-01 0.000000e+00
1.447368e+00 1.666667e-01 0.000000e+00
1.578947e+00 1.666667e-01 0.000000e+00
1.710526e+00 1.666667e-01 0.000000e+00
1.842105e+00 1.666667e-01 0.000000e+00
1.973684e+00 1.666667e-01 0.000000e+00
2.105263e+00 1.666667e-01 0.000000e+00
2.236842e+00 1.666667e-01 0.000000e+00
2.368421e+00 1.666667e-01 0.000000e+00
2.500000e+00 1.666667e-01 0.000000e+00
2.631579e+00 1.666667e-01 0.000000e+00
2.763158e+00 1.666667e-01 0.000000e+00
2.894737e+00 1.666667e-01 0.000000e+00
3.026316e+00 1.666667e-01 0.000000e+00
3.157895e+00 1.666667e-01 0.000000e+00
3.289474e+00 1.666667e-01 0.000000e+00
3.421053e+00 1.666667e-01 0.000000e+00
3.552632e+00 1.666667e-01 0.000000e+00
3.684211e+00 1.666667e-01 0.000000e+00
3.815789e+00 1.666667e-01 0.000000e+00
3.947368e+00 1.666667e-01 0.000000e+00
4.078947e+00 1.666667e-01 0.000000e+00
4.210526e+00 1.666667e-01 0.000000e+00
4.342105e+00 1.666667e-01 0.000000e+00
4.473684e+00 1.666667e-01 0.000000e+00
4.605263e+00 1.666667e-01 0.000000e+00
4.736842e+00 1.666667e-01 0.000000e+00
4.868421e+00 1.666667e-01 0.000000e+00
5.000000e+00 1.666667e-01 0.000000e+00
0.000000e+00 3.333333e-01 0.000000e+00
1.315789e-01 3.333333e-01 0.000000e+00
2.631579e-01 3.333333e-01 0.000000e+00
3.947368e-01 3.333333e-01 0.000000e+00
5.263158e-01 3.333333e-01 0.000000e+00
6.578947e-01 3.333333e-01 0.000000e+00
7.894737e-01 3.333333e-01 0.000000e+00
9.210526e-01 3.333333e-01 0.000000e+00
1.052632e+00 3.333333e-01 0.000000e+00
1.184211e+00 3.333333e-01 0.000000e+00
1.315789e+00 3.333333e-01 0.000000e+00
1.447368e+00 3.333333e-01 0.000000e+00
1.578947e+00 3.333333e-01 0.000000e+00
1.710526e+00 3.333333e-01 0.000000e+00
1.842105e+00 3.333333e-01 0.000000e+00
1.973684e+00 3.333333e-01 0.000000e+00
2.105263e+00 3.333333e-01 0.000000e+00
2.236842e+00 3.333333e-01 0.000000e+00
2.368421e+00 3.333333e-01 0.000000e+00
2.500000e+00 3.333333e-01 0.000000e+00
2.631579e+00 3.333333e-01 0.000000e+00
2.763158e+00 3.333333e-01 0.000000e+00
2.894737e+00 3.333333e-01 0.000000e+00
3.026316e+00 3.333333e-01 0.000000e+00
3.157895e+00 3.333333e-01 0.000000e+00
3.289474e+00 3.333333e-01 0.000000e+00
3.421053e+00 3.333333e-01 0.000000e+00
3.552632e+00 3.333333e-01 0.000000e+00
3.684211e+00 3.333333e-01 0.000000e+00
3.815789e+00 3.333333e-01 0.000000e+00
3.947368e+00 3.333333e-01 0.000000e+00
4.078947e+00 3.333333e-01 0.000000e+00
4.210526e+00 3.333333e-01 0.000000e+00
4.342105e+00 3.333333e-01 0.000000e+00
4.473684e+00 3.333333e-01 0.000000e+00
4.605263e+00 3.333333e-01 0.000000e+00
4.736842e+00 3.333333e-01 0.000000e+00
4.868421e+00 3.333333e-01 0.000000e+00
5.000000e+00 3.333333e-01 0.000000e+00
0.000000e+00 5.000000e-01 0.000000e+00
1.315789e-01 5.000000e-01 0.000000e+00
2.631579e-01 5.000000e-01 0.000000e+00
3.947368e-01 5.000000e-01 0.000000e+00
5.263158e-01 5.000000e-01 0.000000e+00
6.578947e-01 5.000000e-01 0.000000e+00
7.894737e-01 5.000000e-01 0.000000e+00
9.210526e-01 5.000000e-01 0.000000e+00
1.052632e+00 5.000000e-01 0.000000e+00
1.184211e+00 5.000000e-01 0.000000e+00
1.315789e+00 5.000000e-01 0.000000e+00
1.447368e+00 5.000000e-01 0.000000e+00
1.578947e+00 5.000000e-01 0.000000e+00
1.710526e+00 5.000000e-01 0.000000e+00
1.842105e+00 5.000000e-01 0.000000e+00
1.973684e+00 5.000000e-01 0.000000e+00
2.105263e+00 5.000000e-01 0.000000e+00
2.236842e+00 5.000000e-01 0.000000e+00
2.368421e+00 5.000000e-01 0.000000e+00
2.500000e+00 5.000000e-01 0.000000e+00
2.631579e+00 5.000000e-01 0.000000e+00
2.763158e+00 5.000000e-01 0.000000e+00
2.894737e+00 5.000000e-01 0.000000e+00
3.026316e+00 5.000000e-01 0.000000e+00
3.157895e+00 5.000000e-01 0.000000e+00
3.289474e+00 5.000000e-01 0.000000e+00
3.421053e+00 5.000000e-01 0.000000e+00
3.552632e+00 5.000000e-01 0.000000e+00
3.684211e+00 5.000000e-01 0.000000e+00
3.815789e+00 5.000000e-01 0.000000e+00
3.947368e+00 5.000000e-01 0.000000e+00
4.078947e+00 5.000000e-01 0.000000e+00
4.210526e+00 5.000000e-01 0.000000e+00
4.342105e+00 5.000000e-01 0.000000e+00
4.473684e+00 5.000000e-01 0.000000e+00
4.605263e+00 5.000000e-01 0.000000e+00
4.736842e+00 5.000000e-01 0.000000e+00
4.868421e+00 5.000000e-01 0.000000e+00
5.000000e+00 5.000000e-01 0.000000e+00
0.000000e+00 6.666667e-01 0.000000e+00
1.315789e-01 6.666667e-01 0.000000e+00
2.631579e-01 6.666667e-01 0.000000e+00
3.947368e-01 6.666667e-01 0.000000e+00
5.263158e-01 6.666667e-01 0.000000e+00
6.578947e-01 6.666667e-01 0.000000e+00
7.894737e-01 6.666667e-01 0.000000e+00
9.210526e-01 6.666667e-01 0.000000e+00
1.052632e+00 6.666667e-01 0.000000e+00
1.184211e+00 6.666667e-01 0.000000e+00
1.315789e+00 6.666667e-01 0.000000e+00
1.447368e+00 6.666667e-01 0.000000e+00
1.578947e+00 6.666667e-01 0.000000e+00
1.710526e+00 6.666667e-01 0.000000e+00
1.842105e+00 6.666667e-01 0.000000e+00
1.973684e+00 6.666667e-01 0.000000e+00
2.105263e+00 6.666667e-01 0.000000e+00
2.236842e+00 6.666667e-01 0.000000e+00
2.368421e+00 6.666667e-01 0.000000e+00
2.500000e+00 6.666667e-01 0.000000e+00
2.631579e+00 6.666667e-01 0.000000e+00
2.763158e+00 6.666667e-01 0.000000e+00
2.894737e+00 6.666667e-01 0.000000e+00
3.026316e+00 6.666667e-01 0.000000e+00
3.157895e+00 6.666667e-01 0.000000e+00
3.289474e+00 6.666667e-01 0.000000e+00
3.421053e+00 6.666667e-01 0.000000e+00
3.552632e+00 6.666667e-01 0.000000e+00
3.684211e+00 6.666667e-01 0.000000e+00
3.815789e+00 6.666667e-01 0.000000e+00
3.947368e+00 6.666667e-01 0.000000e+00
4.078947e+00 6.666667e-01 0.000000e+00
4.210526e+00 6.666667e-01 0.000000e+00
4.342105e+00 6.666667e-01 0.000000e+00
4.473684e+00 6.666667e-01 0.000000e+00
4.605263e+00 6.666667e-01 0.000000e+00
4.736842e+00 6.666667e-01 0.000000e+00
4.868421e+00 6.666667e-01 0.000000e+00
5.000000e+00 6.666667e-01 0.000000e+00
0.000000e+00 8.333333e-01 0.000000e+00
1.315789e-01 8.333333e-01 0.000000e+00
2.631579e-01 8.333333e-01 0.000000e+00
3.947368e-01 8.333333e-01 0.000000e+00
5.263158e-01 8.333333e-01 0.000000e+00
6.578947e-01 8.333333e-01 0.000000e+00
7.894737e-01 8.333333e-01 0.000000e+00
9.210526e-01 8.333333e-01 0.000000e+00
1.052632e+00 8.333333e-01 0.000000e+00
1.184211e+00 8.333333e-01 0.000000e+00
1.315789e+00 8.333333e-01 0.000000e+00
1.447368e+00 8.333333e-01 0.000000e+00
1.578947e+00 8.333333e-01 0.000000e+00
1.710526e+00 8.333333e-01 0.000000e+00
1.842105e+00 8.333333e-01 0.000000e+00
1.973684e+00 8.333333e-01 0.000000e+00
2.105263e+00 8.333333e-01 0.000000e+00
2.236842e+00 8.333333e-01 0.000000e+00
2.368421e+00 8.333333e-01 0.000000e+00
2.500000e+00 8.333333e-01 0.000000e+00
2.631579e+00 8.333333e-01 0.000000e+00
2.763158e+00 8.333333e-01 0.000000e+00
2.894737e+00 8.333333e-01 0.000000e+00
3.026316e+00 8.333333e-01 0.000000e+00
3.157895e+00 8.333333e-01 0.000000e+00
3.289474e+00 8.333333e-01 0.000000e+00
3.421053e+00 8.333333e-01 0.000000e+00
3.552632e+00 8.333333e-01 0.000000e+00
3.684211e+00 8.333333e-01 0.000000e+00
3.815789e+00 8.333333e-01 0.000000e+00
3.947368e+00 8.333333e-01 0.000000e+00
4.078947e+00 8.333333e-01 0.000000e+00
4.210526e+00 8.333333e-01 0.000000e+00
4.342105e+00 8.333333e-01 0.000000e+00
4.473684e+00 8.333333e-01 0.000000e+00
4.605263e+00 8.333333e-01 0.000000e+00
4.736842e+00 8.333333e-01 0.000000e+00
4.868421e+00 8.333333e-01 0.000000e+00
5.000000e+00 8.333333e-01 0.000000e+00
0.000000e+00 1.000000e+00 0.000000e+00
1.315789e-01 1.000000e+00 0.000000e+00
2.631579e-01 1.000000e+00 0.000000e+00
3.947368e-01 1.000000e+00 0.000000e+00
5.263158e-01 1.000000e+00 0.000000e+00
6.578947e-01 1.000000e+00 0.000000e+00
7.894737e-01 1.000000e+00 0.000000e+00
9.210526e-01 1.000000e+00 0.000000e+00
1.052632e+00 1.000000e+00 0.000000e+00
1.184211e+00 1.000000e+00 0.000000e+00
1.315789e+00 1.000000e+00 0.000000e+00
1.447368e+00 1.000000e+00 0.000000e+00
1.578947e+00 1.000000e+00 0.000000e+00
1.710526e+00 1.000000e+00 0.000000e+00
1.842105e+00 1.000000e+00 0.000000e+00
1.973684e+00 1.000000e+00 0.000000e+00
2.105263e+00 1.000000e+00 0.000000e+00
2.236842e+00 1.000000e+00 0.000000e+00
2.368421e+00 1.000000e+00 0.000000e+00
2.500000e+00 1.000000e+00 0.000000e+00
2.631579e+00 1.000000e+00 0.000000e+00
2.763158e+00 1.000000e+00 0.000000e+00
2.894737e+00 1.000000e+00 0.000000e+00
3.026316e+00 1.000000e+00 0.000000e+00
3.157895e+00 1.000000e+00 0.000000e+00
3.289474e+00 1.000000e+00 0.000000e+00
3.421053e+00 1.000000e+00 0.000000e+00
3.552632e+00 1.000000e+00 0.000000e+00
3.684211e+00 1.000000e+00 0.000000e+00
3.815789e+00 1.000000e+00 0.000000e+00
3.947368e+00 1.000000e+00 0.000000e+00
4.078947e+00 1.000000e+00 0.000000e+00
4.210526e+00 1.000000e+00 0.000000e+00
4.342105e+00 1.000000e+00 0.000000e+00
4.473684e+00 1.000000e+00 0.000000e+00
4.605263e+00 1.000000e+00 0.000000e+00
4.736842e+00 1.000000e+00 0.000000e+00
4.868421e+00 1.000000e+00 0.000000e+00
5.000000e+00 1.000000e+00 0.000000e+00
</DataArray>
</Points>
<PointData>
<DataArray Name="Velocity" type="Float64" format="ascii" NumberOfComponents="3">
0.000000e+00 0.000000e+00 0
0.000000e+00 0.000000e+00 0
0.000000e+00 0.000000e+00 0
-3.119845e-18 0.000000e+00 0
0.000000e+00 0.000000e+00 0
0.000000e+00 0.000000e+00 0
4.186016e-18 0.000000e+00 0
0.000000e+00 0.000000e+00 0
0.000000e+00 0.000000e+00 0
0.000000e+00 0.000000e+00 0
0.000000e+00 0.000000e+00 0
0.000000e+00 0.000000e+00 0
3.413276e-18 0.000000e+00 0
0.000000e+00 0.000000e+00 0
0.000000e+00 0.000000e+00 0
0.000000e+00 0.000000e+00 0
0.000000e+00 0.000000e+00 0
0.000000e+00 0.000000e+00 0
0.000000e+00 0.000000e+00 0
0.000000e+00 0.000000e+00 0
0.000000e+00 0.000000e+00 0
0.000000e+00 0.000000e+00 0
0.000000e+00 0.000000e+00 0
0.000000e+00 0.000000e+00 0
0.000000e+00 0.000000e+00 0
0.000000e+00 0.000000e+00 0
0.000000e+00 0.000000e+00 0
0.000000e+00 0.000000e+00 0
0.000000e+00 0.000000e+00 0
0.000000e+00 0.000000e+00 0
0.000000e+00 0.000000e+00 0
0.000000e+00 0.000000e+00 0
0.000000e+00 0.000000e+00 0
0.000000e+00 0.000000e+00 0
0.000000e+00 0.000000e+00 0
0.000000e+00 0.000000e+00 0
0.000000e+00 0.000000e+00 0
0.000000e+00 0.000000e+00 0
0.000000e+00 0.000000e+00 0
0.000000e+00 0.000000e+00 0
-9.098645e-01 -3.911192e-01 0
-2.283132e-01 -1.290291e-02 0
-2.682679e-01 -3.087122e-02 0
2.511179e-01 -9.933737e-02 0
0.000000e+00 0.000000e+00 0
-8.769065e-02 1.721631e-01 0
-1.520297e-01 1.441316e-01 0
-2.019620e-01 1.220242e-01 0
-2.402984e-01 9.511365e-02 0
-2.515082e-01 4.640698e-02 0
-2.213295e-01 -2.633689e-02 0
-1.624184e-01 -8.571955e-02 0
-8.672910e-02 -1.143123e-01 0
-3.462894e-03 -1.268367e-01 0
8.101247e-02 -1.291685e-01 0
1.626469e-01 -1.265892e-01 0
2.390839e-01 -1.193440e-01 0
3.088372e-01 -1.070832e-01 0
3.713030e-01 -9.402913e-02 0
4.266597e-01 -8.253386e-02 0
4.754827e-01 -7.266095e-02 0
5.184963e-01 -6.419616e-02 0
5.564439e-01 -5.694458e-02 0
5.900269e-01 -5.074389e-02 0
6.198772e-01 -4.545072e-02 0
6.465474e-01 -4.093403e-02 0
6.705110e-01 -3.707395e-02 0
6.921664e-01 -3.376200e-02 0
7.118435e-01 -3.090111e-02 0
7.298111e-01 -2.840444e-02 0
7.462827e-01 -2.619282e-02 0
7.614215e-01 -2.419015e-02 0
7.753420e-01 -2.231521e-02 0
7.881078e-01 -2.046656e-02 0
7.997212e-01 -1.848970e-02 0
8.100983e-01 -1.614605e-02 0
8.190727e-01 -1.231655e-02 0
8.190727e-01 -9.786170e-03 0
0.000000e+00 0.000000e+00 0
-1.534756e+00 -2.633008e-01 0
-1.271128e+00 -9.817514e-02 0
-1.265376e+00 -1.204875e-01 0
-1.092806e+00 -1.766271e-01 0
0.000000e+00 0.000000e+00 0
9.606882e-02 1.925827e-01 0
1.792049e-01 1.447490e-01 0
2.612196e-01 1.118117e-01 0
3.465976e-01 6.276270e-02 0
4.349382e-01 -2.402377e-02 0
5.130539e-01 -1.128444e-01 0
5.713131e-01 -1.704918e-01 0
6.213891e-01 -2.013423e-01 0
6.659573e-01 -2.124722e-01 0
7.060792e-01 -2.104059e-01 0
7.419135e-01 -2.002247e-01 0
7.726238e-01 -1.851761e-01 0
8.000953e-01 -1.674797e-01 0
8.252692e-01 -1.492444e-01 0
8.478692e-01 -1.319641e-01 0
8.677929e-01 -1.163298e-01 0
8.851679e-01 -1.025544e-01 0
9.002421e-01 -9.060921e-02 0
9.133027e-01 -8.035268e-02 0
9.246318e-01 -7.159651e-02 0
9.344870e-01 -6.413995e-02 0
9.430936e-01 -5.778755e-02 0
9.506435e-01 -5.235780e-02 0
9.572966e-01 -4.768632e-02 0
9.631836e-01 -4.362559e-02 0
9.684089e-01 -4.004202e-02 0
9.730537e-01 -3.681027e-02 0
9.771798e-01 -3.380407e-02 0
9.808364e-01 -3.088126e-02 0
9.840712e-01 -2.785518e-02 0
9.869566e-01 -2.451205e-02 0
9.896679e-01 -1.932577e-02 0
9.896679e-01 -1.591647e-02 0
1.033902e+00 -1.719268e-19 0
1.776357e-15 -2.953078e-19 0
1.776357e-15 -8.403477e-19 0
1.793432e-15 -2.346462e-18 0
1.776357e-15 -5.340677e-18 0
1.040473e+00 -1.830642e-02 0
1.146459e+00 -4.583483e-02 0
1.227396e+00 -6.505769e-02 0
1.300223e+00 -9.000501e-02 0
1.369259e+00 -1.249288e-01 0
1.420164e+00 -1.644368e-01 0
1.438375e+00 -1.990779e-01 0
1.434806e+00 -2.229441e-01 0
1.418807e+00 -2.341951e-01 0
1.396815e+00 -2.341113e-01 0
1.372768e+00 -2.253805e-01 0
1.348856e+00 -2.108801e-01 0
1.326179e+00 -1.930423e-01 0
1.305507e+00 -1.737688e-01 0
1.287166e+00 -1.545444e-01 0
1.271037e+00 -1.363990e-01 0
1.256828e+00 -1.199078e-01 0
1.244229e+00 -1.053004e-01 0
1.232960e+00 -9.258387e-02 0
1.222790e+00 -8.163934e-02 0
1.213529e+00 -7.228595e-02 0
1.205025e+00 -6.432056e-02 0
1.197155e+00 -5.754022e-02 0
1.189820e+00 -5.175370e-02 0
1.182943e+00 -4.678639e-02 0
1.176462e+00 -4.248094e-02 0
1.170330e+00 -3.869551e-02 0
1.164513e+00 -3.530044e-02 0
1.158994e+00 -3.217364e-02 0
1.153775e+00 -2.919562e-02 0
1.148899e+00 -2.624171e-02 0
1.144485e+00 -2.323496e-02 0
1.140763e+00 -1.898646e-02 0
1.140763e+00 -1.625755e-02 0
2.074630e+00 -3.871447e-04 0
2.074630e+00 -6.649740e-04 0
2.074932e+00 -1.892295e-03 0
2.075744e+00 -5.283762e-03 0
2.077594e+00 -1.202614e-02 0
2.076691e+00 -2.233639e-02 0
2.068023e+00 -3.519447e-02 0
2.054795e+00 -5.001788e-02 0
2.036874e+00 -6.787955e-02 0
2.010904e+00 -8.916058e-02 0
1.973265e+00 -1.115698e-01 0
1.924137e+00 -1.313903e-01 0
1.866280e+00 -1.457050e-01 0
1.803607e+00 -1.532212e-01 0
1.739836e+00 -1.541573e-01 0
1.677848e+00 -1.496580e-01 0
1.619557e+00 -1.412131e-01 0
1.566056e+00 -1.302695e-01 0
1.517852e+00 -1.180648e-01 0
1.475000e+00 -1.055837e-01 0
1.437218e+00 -9.353782e-02 0
1.404032e+00 -8.237435e-02 0
1.374896e+00 -7.232268e-02 0
1.349261e+00 -6.345501e-02 0
1.326621e+00 -5.574206e-02 0
1.306522e+00 -4.909604e-02 0
1.288574e+00 -4.340049e-02 0
1.272447e+00 -3.852920e-02 0
1.257863e+00 -3.435733e-02 0
1.244595e+00 -3.076710e-02 0
1.232458e+00 -2.765014e-02 0
1.221307e+00 -2.490796e-02 0
1.211031e+00 -2.245167e-02 0
1.201550e+00 -2.020243e-02 0
1.192822e+00 -1.809486e-02 0
1.184842e+00 -1.608803e-02 0
1.177659e+00 -1.420656e-02 0
1.171352e+00 -1.240802e-02 0
1.171352e+00 -1.150962e-02 0
2.003491e+00 -3.454834e-04 0
2.003491e+00 -5.528350e-04 0
2.003120e+00 -1.406528e-03 0
2.001999e+00 -3.368266e-03 0
1.998951e+00 -6.797540e-03 0
1.992507e+00 -1.178072e-02 0
1.981318e+00 -1.809775e-02 0
1.964724e+00 -2.560087e-02 0
1.941832e+00 -3.440775e-02 0
1.911136e+00 -4.435541e-02 0
1.871443e+00 -5.453023e-02 0
1.823055e+00 -6.356342e-02 0
1.767715e+00 -7.027266e-02 0
1.708025e+00 -7.403307e-02 0
1.646751e+00 -7.481759e-02 0
1.586322e+00 -7.302823e-02 0
1.528599e+00 -6.927766e-02 0
1.474837e+00 -6.421612e-02 0
1.425754e+00 -5.843229e-02 0
1.381627e+00 -5.240943e-02 0
1.342397e+00 -4.650825e-02 0
1.307780e+00 -4.096854e-02 0
1.277363e+00 -3.592612e-02 0
1.250681e+00 -3.143751e-02 0
1.227266e+00 -2.750466e-02 0
1.206673e+00 -2.409571e-02 0
1.188504e+00 -2.116037e-02 0
1.172408e+00 -1.864027e-02 0
1.158085e+00 -1.647549e-02 0
1.145283e+00 -1.460814e-02 0
1.133795e+00 -1.298428e-02 0
1.123453e+00 -1.155465e-02 0
1.114130e+00 -1.027543e-02 0
1.105728e+00 -9.109694e-03 0
1.098180e+00 -8.031365e-03 0
1.091442e+00 -7.035457e-03 0
1.085479e+00 -6.148150e-03 0
1.080227e+00 -5.664282e-03 0
1.080227e+00 -5.591521e-03 0
0.000000e+00 0.000000e+00 0
0.000000e+00 0.000000e+00 0
0.000000e+00 0.000000e+00 0
1.784988e-17 0.000000e+00 0
0.000000e+00 0.000000e+00 0
0.000000e+00 0.000000e+00 0
5.151282e-17 0.000000e+00 0
0.000000e+00 0.000000e+00 0
0.000000e+00 0.000000e+00 0
0.000000e+00 0.000000e+00 0
0.000000e+00 0.000000e+00 0
0.000000e+00 0.000000e+00 0
-6.768529e-18 0.000000e+00 0
0.000000e+00 0.000000e+00 0
0.000000e+00 0.000000e+00 0
0.000000e+00 0.000000e+00 0
0.000000e+00 0.000000e+00 0
0.000000e+00 0.000000e+00 0
0.000000e+00 0.000000e+00 0
0.000000e+00 0.000000e+00 0
0.000000e+00 0.000000e+00 0
0.000000e+00 0.000000e+00 0
0.000000e+00 0.000000e+00 0
0.000000e+00 0.000000e+00 0
0.000000e+00 0.000000e+00 0
0.000000e+00 0.000000e+00 0
0.000000e+00 0.000000e+00 0
0.000000e+00 0.000000e+00 0
0.000000e+00 0.000000e+00 0
0.000000e+00 0.000000e+00 0
0.000000e+00 0.000000e+00 0
0.000000e+00 0.000000e+00 0
0.000000e+00 0.000000e+00 0
0.000000e+00 0.000000e+00 0
0.000000e+00 0.000000e+00 0
0.000000e+00 0.000000e+00 0
0.000000e+00 0.000000e+00 0
0.000000e+00 0.000000e+00 0
0.000000e+00 0.000000e+00 0
</DataArray>
<DataArray Name="Pressure" type="Float64" format="ascii">
0.000000e+00 0.000000e+00 0.000000e+00 0.000000e+00 -1.084807e-01 -2.169665e-01 -2.284657e-01 -2.547920e-01 -2.852505e-01 -3.126810e-01 -3.225928e-01 -2.939627e-01 -2.206150e-01 -1.223689e-01 -2.239903e-02 6.681754e-02 1.400168e-01 1.975431e-01 2.407408e-01 2.692636e-01 2.848425e-01 2.909024e-01 2.899673e-01 2.838773e-01 2.739797e-01 2.612595e-01 2.464352e-01 2.300289e-01 2.124204e-01 1.938879e-01 1.746375e-01 1.548272e-01 1.345843e-01 1.140211e-01 9.325058e-02 7.240786e-02 5.168688e-02 3.292104e-02 6.113945e-03 
0.000000e+00 0.000000e+00 0.000000e+00 0.000000e+00 -1.147696e-01 -2.295393e-01 -2.395465e-01 -2.637333e-01 -2.939832e-01 -3.239904e-01 -3.372083e-01 -3.063443e-01 -2.285493e-01 -1.288380e-01 -2.816914e-02 6.164304e-02 1.355127e-01 1.933704e-01 2.363811e-01 2.649032e-01 2.808936e-01 2.874320e-01 2.869484e-01 2.812652e-01 2.717283e-01 2.593248e-01 2.447751e-01 2.286042e-01 2.111947e-01 1.928277e-01 1.737117e-01 1.540060e-01 1.338367e-01 1.133107e-01 9.252761e-02 7.159095e-02 5.062510e-02 3.110286e-02 0.000000e+00 
3.770264e-02 2.508732e-02 -6.227558e-04 -2.764583e-02 -1.303019e-01 -2.337164e-01 -2.530439e-01 -2.703669e-01 -2.991612e-01 -3.287905e-01 -3.371474e-01 -2.998746e-01 -2.218279e-01 -1.262388e-01 -3.009149e-02 5.614711e-02 1.277139e-01 1.838244e-01 2.252787e-01 2.532692e-01 2.698338e-01 2.773913e-01 2.780612e-01 2.735239e-01 2.650580e-01 2.536187e-01 2.399144e-01 2.244687e-01 2.076696e-01 1.898056e-01 1.710933e-01 1.516967e-01 1.317414e-01 1.113237e-01 9.051429e-02 6.935322e-02 4.783329e-02 2.641516e-02 0.000000e+00 
8.770264e-02 5.017465e-02 -1.245512e-03 -5.529166e-02 -1.248642e-01 -1.929414e-01 -2.278953e-01 -2.485128e-01 -2.726358e-01 -2.902778e-01 -2.838984e-01 -2.439786e-01 -1.776964e-01 -9.781712e-02 -1.658829e-02 5.768883e-02 1.207379e-01 1.712031e-01 2.093100e-01 2.360553e-01 2.529681e-01 2.617857e-01 2.641319e-01 2.613809e-01 2.546378e-01 2.447688e-01 2.324433e-01 2.181758e-01 2.023606e-01 1.853000e-01 1.672254e-01 1.483132e-01 1.286957e-01 1.084666e-01 8.768004e-02 6.633929e-02 4.436709e-02 2.093818e-02 0.000000e+00 
1.000000e-01 5.060340e-02 5.093460e-04 -5.060652e-02 -1.010524e-01 -1.466999e-01 -1.829869e-01 -2.087993e-01 -2.252565e-01 -2.291472e-01 -2.143275e-01 -1.786026e-01 -1.260323e-01 -6.387980e-02 3.701234e-04 6.091094e-02 1.141188e-01 1.582519e-01 1.928719e-01 2.183548e-01 2.355746e-01 2.456430e-01 2.497022e-01 2.488053e-01 2.438647e-01 2.356435e-01 2.247651e-01 2.117318e-01 1.969446e-01 1.807206e-01 1.633090e-01 1.449024e-01 1.256463e-01 1.056444e-01 8.495924e-02 6.360831e-02 4.155025e-02 1.731886e-02 0.000000e+00 
1.000000e-01 5.133786e-02 3.418836e-03 -4.333392e-02 -8.745865e-02 -1.263927e-01 -1.574775e-01 -1.789188e-01 -1.894525e-01 -1.871674e-01 -1.701240e-01 -1.383008e-01 -9.441453e-02 -4.303183e-02 1.082457e-02 6.280429e-02 1.097735e-01 1.498671e-01 1.822724e-01 2.069403e-01 2.243241e-01 2.351592e-01 2.402945e-01 2.405797e-01 2.368001e-01 2.296476e-01 2.197122e-01 2.074859e-01 1.933724e-01 1.776978e-01 1.607229e-01 1.426518e-01 1.236414e-01 1.038070e-01 8.322903e-02 6.195818e-02 4.002607e-02 1.613101e-02 0.000000e+00 
9.388500e-02 5.164358e-02 4.573469e-03 -4.074646e-02 -8.299053e-02 -1.199424e-01 -1.493112e-01 -1.692053e-01 -1.780571e-01 -1.743150e-01 -1.569189e-01 -1.263303e-01 -8.498498e-02 -3.676776e-02 1.397603e-02 6.333870e-02 1.083659e-01 1.471855e-01 1.788849e-01 2.032862e-01 2.207121e-01 2.317828e-01 2.372557e-01 2.379159e-01 2.345074e-01 2.276983e-01 2.180671e-01 2.061019e-01 1.922067e-01 1.767106e-01 1.598779e-01 1.419167e-01 1.229877e-01 1.032114e-01 8.267573e-02 6.144590e-02 3.958254e-02 1.595502e-02 8.523914e-04 
</DataArray>
<DataArray Name="Stream" type="Float64" format="ascii">
0.000000e+00 0.000000e+00 0.000000e+00 0.000000e+00 0.000000e+00 0.000000e+00 0.000000e+00 0.000000e+00 0.000000e+00 0.000000e+00 0.000000e+00 0.000000e+00 0.000000e+00 0.000000e+00 0.000000e+00 0.000000e+00 0.000000e+00 0.000000e+00 0.000000e+00 0.000000e+00 0.000000e+00 0.000000e+00 0.000000e+00 0.000000e+00 0.000000e+00 0.000000e+00 0.000000e+00 0.000000e+00 0.000000e+00 0.000000e+00 0.000000e+00 0.000000e+00 0.000000e+00 0.000000e+00 0.000000e+00 0.000000e+00 0.000000e+00 0.000000e+00 0.000000e+00 
0.000000e+00 0.000000e+00 0.000000e+00 0.000000e+00 0.000000e+00 0.000000e+00 -2.483711e-02 -4.530399e-02 -6.276531e-02 -7.741457e-02 -8.779427e-02 -8.962612e-02 -8.086285e-02 -6.706783e-02 -5.078031e-02 -3.368955e-02 -1.678855e-02 -3.767017e-04 1.461753e-02 2.780271e-02 3.936156e-02 4.952158e-02 5.848222e-02 6.641460e-02 7.346689e-02 7.976748e-02 8.542682e-02 9.053883e-02 9.518239e-02 9.942287e-02 1.033136e-01 1.068971e-01 1.102060e-01 1.132626e-01 1.160780e-01 1.186482e-01 1.209436e-01 1.228971e-01 1.228971e-01 
0.000000e+00 0.000000e+00 0.000000e+00 0.000000e+00 0.000000e+00 0.000000e+00 -2.923022e-02 -5.067658e-02 -6.732067e-02 -8.009946e-02 -8.383607e-02 -7.377649e-02 -5.413945e-02 -2.890970e-02 -1.154298e-03 2.700416e-02 5.421562e-02 7.969462e-02 1.029457e-01 1.237677e-01 1.422199e-01 1.584942e-01 1.728321e-01 1.854813e-01 1.966756e-01 2.066257e-01 2.155158e-01 2.235037e-01 2.307221e-01 2.372812e-01 2.432704e-01 2.487609e-01 2.538072e-01 2.584473e-01 2.627026e-01 2.665737e-01 2.700328e-01 2.730242e-01 2.730242e-01 
0.000000e+00 1.530483e-16 1.531035e-16 1.532698e-16 1.537214e-16 1.540210e-16 7.185834e-03 1.443099e-02 2.430788e-02 3.811797e-02 5.718514e-02 8.139184e-02 1.095749e-01 1.400619e-01 1.712055e-01 2.016702e-01 2.305160e-01 2.571646e-01 2.813160e-01 3.028924e-01 3.219846e-01 3.387859e-01 3.535382e-01 3.664953e-01 3.779011e-01 3.879781e-01 3.969225e-01 4.049034e-01 4.120635e-01 4.185217e-01 4.243748e-01 4.297001e-01 4.345572e-01 4.389892e-01 4.430235e-01 4.466720e-01 4.499291e-01 4.527864e-01 4.527864e-01 
0.000000e+00 3.446342e-01 3.447585e-01 3.451328e-01 3.461498e-01 3.468244e-01 3.529226e-01 3.584555e-01 3.660871e-01 3.763202e-01 3.895518e-01 4.056818e-01 4.241291e-01 4.440259e-01 4.644507e-01 4.845936e-01 5.038342e-01 5.217544e-01 5.381149e-01 5.528231e-01 5.658989e-01 5.774371e-01 5.875750e-01 5.964679e-01 6.042722e-01 6.111354e-01 6.171908e-01 6.225552e-01 6.273287e-01 6.315954e-01 6.354243e-01 6.388708e-01 6.419782e-01 6.447786e-01 6.472942e-01 6.495401e-01 6.515278e-01 6.532787e-01 6.532787e-01 
0.000000e+00 6.915434e-01 6.916439e-01 6.919145e-01 6.925314e-01 6.922305e-01 6.965268e-01 6.993628e-01 7.032659e-01 7.084193e-01 7.149400e-01 7.227707e-01 7.316682e-01 7.412641e-01 7.511508e-01 7.609529e-01 7.703684e-01 7.791832e-01 7.872665e-01 7.945590e-01 8.010571e-01 8.067965e-01 8.118367e-01 8.162491e-01 8.201080e-01 8.234854e-01 8.264473e-01 8.290523e-01 8.313512e-01 8.333866e-01 8.351942e-01 8.368025e-01 8.382340e-01 8.395059e-01 8.406309e-01 8.416191e-01 8.424822e-01 8.432372e-01 8.432372e-01 
0.000000e+00 1.012464e+00 1.012465e+00 1.012466e+00 1.012467e+00 1.010993e+00 1.013362e+00 1.013363e+00 1.013364e+00 1.013365e+00 1.013366e+00 1.013367e+00 1.013367e+00 1.013368e+00 1.013368e+00 1.013367e+00 1.013367e+00 1.013367e+00 1.013366e+00 1.013365e+00 1.013365e+00 1.013364e+00 1.013363e+00 1.013362e+00 1.013361e+00 1.013360e+00 1.013359e+00 1.013358e+00 1.013357e+00 1.013356e+00 1.013356e+00 1.013355e+00 1.013355e+00 1.013355e+00 1.013354e+00 1.013354e+00 1.013354e+00 1.013354e+00 1.013354e+00 
</DataArray>
<DataArray Name="Vorticity" type="Float64" format="ascii">
0.000000e+00 -9.816274e+00 2.049442e-01 -9.189719e-01 7.331394e+00 0.000000e+00 -1.788272e+00 -3.261887e+00 -4.519102e+00 -5.573849e+00 -6.321188e+00 -6.453081e+00 -5.822125e+00 -4.828884e+00 -3.656182e+00 -2.425648e+00 -1.208775e+00 -2.712253e-02 1.052462e+00 2.001795e+00 2.834033e+00 3.565554e+00 4.210720e+00 4.781851e+00 5.289616e+00 5.743259e+00 6.150731e+00 6.518796e+00 6.853132e+00 7.158446e+00 7.438580e+00 7.696594e+00 7.934829e+00 8.154904e+00 8.357619e+00 8.542673e+00 8.707939e+00 8.848593e+00 8.848593e+00 
1.228576e+01 -7.442846e+00 -2.352843e+00 -2.618983e+00 -2.958553e+00 -2.869354e+00 9.884589e-01 1.611134e+00 2.257987e+00 2.936881e+00 3.796818e+00 4.409106e+00 4.163743e+00 3.932107e+00 3.661026e+00 3.386841e+00 3.132288e+00 2.814252e+00 2.549097e+00 2.359907e+00 2.205089e+00 2.070965e+00 1.951845e+00 1.844642e+00 1.747289e+00 1.658228e+00 1.576223e+00 1.500278e+00 1.429582e+00 1.363473e+00 1.301407e+00 1.242928e+00 1.187658e+00 1.135272e+00 1.085503e+00 1.038104e+00 9.934940e-01 9.418177e-01 9.802795e-01 
6.690122e+00 -9.084543e+00 -9.391035e+00 -9.503945e+00 -1.111690e+01 -3.376946e+00 1.918819e+00 2.814669e+00 3.685884e+00 4.874764e+00 5.731141e+00 5.568673e+00 5.254714e+00 4.855172e+00 4.441701e+00 4.048311e+00 3.690601e+00 3.377673e+00 3.101206e+00 2.856883e+00 2.642840e+00 2.455632e+00 2.291288e+00 2.146072e+00 2.016735e+00 1.900563e+00 1.795324e+00 1.699212e+00 1.610771e+00 1.528844e+00 1.452511e+00 1.381052e+00 1.313900e+00 1.250617e+00 1.190879e+00 1.134413e+00 1.082049e+00 1.015042e+00 1.066863e+00 
1.240683e+01 2.481366e+01 2.482261e+01 2.484956e+01 2.492279e+01 1.276393e+01 1.127572e+01 1.019302e+01 9.232609e+00 8.223109e+00 7.185302e+00 6.318060e+00 5.563321e+00 4.897657e+00 4.312673e+00 3.803759e+00 3.365743e+00 2.992080e+00 2.674710e+00 2.405523e+00 2.177064e+00 1.982598e+00 1.816220e+00 1.672906e+00 1.548489e+00 1.439560e+00 1.343361e+00 1.257671e+00 1.180706e+00 1.111038e+00 1.047530e+00 9.892845e-01 9.356008e-01 8.859408e-01 8.398969e-01 7.971114e-01 7.581866e-01 7.048033e-01 7.462827e-01 
8.190217e-02 8.612517e-02 9.099861e-02 9.647864e-02 7.371097e-02 4.029329e-02 2.731748e-02 9.001274e-03 -1.533677e-02 -4.651578e-02 -8.380177e-02 -1.253926e-01 -1.688067e-01 -2.116161e-01 -2.519060e-01 -2.884144e-01 -3.204763e-01 -3.478822e-01 -3.707251e-01 -3.893009e-01 -4.040289e-01 -4.153782e-01 -4.238148e-01 -4.297706e-01 -4.336292e-01 -4.357227e-01 -4.363335e-01 -4.356996e-01 -4.340196e-01 -4.314580e-01 -4.281489e-01 -4.241988e-01 -4.196895e-01 -4.146806e-01 -4.092135e-01 -4.033229e-01 -3.968767e-01 -3.928732e-01 -3.792176e-01 
-9.355717e-01 -9.324200e-01 -9.284833e-01 -9.243008e-01 -9.199398e-01 -9.155450e-01 -9.112704e-01 -9.069991e-01 -9.026680e-01 -8.985258e-01 -8.949540e-01 -8.921058e-01 -8.898874e-01 -8.880461e-01 -8.862829e-01 -8.843278e-01 -8.819730e-01 -8.790758e-01 -8.755460e-01 -8.713388e-01 -8.664502e-01 -8.609057e-01 -8.547488e-01 -8.480313e-01 -8.408065e-01 -8.331261e-01 -8.250379e-01 -8.165853e-01 -8.078079e-01 -7.987409e-01 -7.894153e-01 -7.798577e-01 -7.700892e-01 -7.601253e-01 -7.499739e-01 -7.396208e-01 -7.292137e-01 -7.153914e-01 -7.142854e-01 
-2.310632e+01 -2.310632e+01 -2.309913e+01 -2.307969e+01 -2.303534e+01 -2.295092e+01 -2.281215e+01 -2.260804e+01 -2.232710e+01 -2.195612e+01 -2.148669e+01 -2.092293e+01 -2.028234e+01 -1.959145e+01 -1.887961e+01 -1.817385e+01 -1.749591e+01 -1.686121e+01 -1.627917e+01 -1.575406e+01 -1.528613e+01 -1.487283e+01 -1.450987e+01 -1.419211e+01 -1.391419e+01 -1.367095e+01 -1.345763e+01 -1.327000e+01 -1.310443e+01 -1.295782e+01 -1.282763e+01 -1.271180e+01 -1.260870e+01 -1.251710e+01 -1.243609e+01 -1.236493e+01 -1.230279e+01 -1.224844e+01 -1.224844e+01 
</DataArray>
</PointData>
</Piece>
</StructuredGrid>
</VTKFile>
