<?xml version="1.0"?>
<VTKFile type="StructuredGrid">
<StructuredGrid WholeExtent="0 78 0 14 0 0 ">
<Piece Extent="0 78 0 14 0 0 ">
<Points>
<DataArray type="Float64" format="ascii" NumberOfComponents="3">
0.000000e+00 0.000000e+00 0.000000e+00
6.410256e-02 0.000000e+00 0.000000e+00
1.282051e-01 0.000000e+00 0.000000e+00
1.923077e-01 0.000000e+00 0.000000e+00
2.564103e-01 0.000000e+00 0.000000e+00
3.205128e-01 0.000000e+00 0.000000e+00
3.846154e-01 0.000000e+00 0.000000e+00
4.487179e-01 0.000000e+00 0.000000e+00
5.128205e-01 0.000000e+00 0.000000e+00
5.769231e-01 0.000000e+00 0.000000e+00
6.410256e-01 0.000000e+00 0.000000e+00
7.051282e-01 0.000000e+00 0.000000e+00
7.692308e-01 0.000000e+00 0.000000e+00
8.333333e-01 0.000000e+00 0.000000e+00
8.974359e-01 0.000000e+00 0.000000e+00
9.615385e-01 0.000000e+00 0.000000e+00
1.025641e+00 0.000000e+00 0.000000e+00
1.089744e+00 0.000000e+00 0.000000e+00
1.153846e+00 0.000000e+00 0.000000e+00
1.217949e+00 0.000000e+00 0.000000e+00
1.282051e+00 0.000000e+00 0.000000e+00
1.346154e+00 0.000000e+00 0.000000e+00
1.410256e+00 0.000000e+00 0.000000e+00
1.474359e+00 0.000000e+00 0.000000e+00
1.538462e+00 0.000000e+00 0.000000e+00
1.602564e+00 0.000000e+00 0.000000e+00
1.666667e+00 0.000000e+00 0.000000e+00
1.730769e+00 0.000000e+00 0.000000e+00
1.794872e+00 0.000000e+00 0.000000e+00
1.858974e+00 0.000000e+00 0.000000e+00
1.923077e+00 0.000000e+00 0.000000e+00
1.987179e+00 0.000000e+00 0.000000e+00
2.051282e+00 0.000000e+00 0.000000e+00
2.115385e+00 0.000000e+00 0.000000e+00
2.179487e+00 0.000000e+00 0.000000e+00
2.243590e+00 0.000000e+00 0.000000e+00
2.307692e+00 0.000000e+00 0.000000e+00
2.371795e+00 0.000000e+00 0.000000e+00
2.435897e+00 0.000000e+00 0.000000e+00
2.500000e+00 0.000000e+00 0.000000e+00
2.564103e+00 0.000000e+00 0.000000e+00
2.628205e+00 0.000000e+00 0.000000e+00
2.692308e+00 0.000000e+00 0.000000e+00
2.756410e+00 0.000000e+00 0.000000e+00
2.820513e+00 0.000000e+00 0.000000e+00
2.884615e+00 0.000000e+00 0.000000e+00
2.948718e+00 0.000000e+00 0.000000e+00
3.012821e+00 0.000000e+00 0.000000e+00
3.076923e+00 0.000000e+00 0.000000e+00
3.141026e+00 0.000000e+00 0.000000e+00
3.205128e+00 0.000000e+00 0.000000e+00
3.269231e+00 0.000000e+00 0.000000e+00
3.333333e+00 0.000000e+00 0.000000e+00
3.397436e+00 0.000000e+00 0.000000e+00
3.461538e+00 0.000000e+00 0.000000e+00
3.525641e+00 0.000000e+00 0.000000e+00
3.589744e+00 0.000000e+00 0.000000e+00
3.653846e+00 0.000000e+00 0.000000e+00
3.717949e+00 0.000000e+00 0.000000e+00
3.782051e+00 0.000000e+00 0.000000e+00
3.846154e+00 0.000000e+00 0.000000e+00
3.910256e+00 0.000000e+00 0.000000e+00
3.974359e+00 0.000000e+00 0.000000e+00
4.038462e+00 0.000000e+00 0.000000e+00
4.102564e+00 0.000000e+00 0.000000e+00
4.166667e+00 0.000000e+00 0.000000e+00
4.230769e+00 0.000000e+00 0.000000e+00
4.294872e+00 0.000000e+00 0.000000e+00
4.358974e+00 0.000000e+00 0.000000e+00
4.423077e+00 0.000000e+00 0.000000e+00
4.487179e+00 0.000000e+00 0.000000e+00
4.551282e+00 0.000000e+00 0.000000e+00
4.615385e+00 0.000000e+00 0.000000e+00
4.679487e+00 0.000000e+00 0.000000e+00
4.743590e+00 0.000000e+00 0.000000e+00
4.807692e+00 0.000000e+00 0.000000e+00
4.871795e+00 0.000000e+00 0.000000e+00
4.935897e+00 0.000000e+00 0.000000e+00
5.000000e+00 0.000000e+00 0.000000e+00
0.000000e+00 7.142857e-02 0.000000e+00
6.410256e-02 7.142857e-02 0.000000e+00
1.282051e-01 7.142857e-02 0.000000e+00
1.923077e-01 7.142857e-02 0.000000e+00
2.564103e-01 7.142857e-02 0.000000e+00
3.205128e-01 7.142857e-02 0.000000e+00
3.846154e-01 7.142857e-02 0.000000e+00
4.487179e-01 7.142857e-02 0.000000e+00
5.128205e-01 7.142857e-02 0.000000e+00
5.769231e-01 7.142857e-02 0.000000e+00
6.410256e-01 7.142857e-02 0.000000e+00
7.051282e-01 7.142857e-02 0.000000e+00
7.692308e-01 7.142857e-02 0.000000e+00
8.333333e-01 7.142857e-02 0.000000e+00
8.974359e-01 7.142857e-02 0.000000e+00
9.615385e-01 7.142857e-02 0.000000e+00
1.025641e+00 7.142857e-02 0.000000e+00
1.089744e+00 7.142857e-02 0.000000e+00
1.153846e+00 7.142857e-02 0.000000e+00
1.217949e+00 7.142857e-02 0.000000e+00
1.282051e+00 7.142857e-02 0.000000e+00
1.346154e+00 7.142857e-02 0.000000e+00
1.410256e+00 7.142857e-02 0.000000e+00
1.474359e+00 7.142857e-02 0.000000e+00
1.538462e+00 7.142857e-02 0.000000e+00
1.602564e+00 7.142857e-02 0.000000e+00
1.666667e+00 7.142857e-02 0.000000e+00
1.730769e+00 7.142857e-02 0.000000e+00
1.794872e+00 7.142857e-02 0.000000e+00
1.858974e+00 7.142857e-02 0.000000e+00
1.923077e+00 7.142857e-02 0.000000e+00
1.987179e+00 7.142857e-02 0.000000e+00
2.051282e+00 7.142857e-02 0.000000e+00
2.115385e+00 7.142857e-02 0.000000e+00
2.179487e+00 7.142857e-02 0.000000e+00
2.243590e+00 7.142857e-02 0.000000e+00
2.307692e+00 7.142857e-02 0.000000e+00
2.371795e+00 7.142857e-02 0.000000e+00
2.435897e+00 7.142857e-02 0.000000e+00
2.500000e+00 7.142857e-02 0.000000e+00
2.564103e+00 7.142857e-02 0.000000e+00
2.628205e+00 7.142857e-02 0.000000e+00
2.692308e+00 7.142857e-02 0.000000e+00
2.756410e+00 7.142857e-02 0.000000e+00
2.820513e+00 7.142857e-02 0.000000e+00
2.884615e+00 7.142857e-02 0.000000e+00
2.948718e+00 7.142857e-02 0.000000e+00
3.012821e+00 7.142857e-02 0.000000e+00
3.076923e+00 7.142857e-02 0.000000e+00
3.141026e+00 7.142857e-02 0.000000e+00
3.205128e+00 7.142857e-02 0.000000e+00
3.269231e+00 7.142857e-02 0.000000e+00
3.333333e+00 7.142857e-02 0.000000e+00
3.397436e+00 7.142857e-02 0.000000e+00
3.461538e+00 7.142857e-02 0.000000e+00
3.525641e+00 7.142857e-02 0.000000e+00
3.589744e+00 7.142857e-02 0.000000e+00
3.653846e+00 7.142857e-02 0.000000e+00
3.717949e+00 7.142857e-02 0.000000e+00
3.782051e+00 7.142857e-02 0.000000e+00
3.846154e+00 7.142857e-02 0.000000e+00
3.910256e+00 7.142857e-02 0.000000e+00
3.974359e+00 7.142857e-02 0.000000e+00
4.038462e+00 7.142857e-02 0.000000e+00
4.102564e+00 7.142857e-02 0.000000e+00
4.166667e+00 7.142857e-02 0.000000e+00
4.230769e+00 7.142857e-02 0.000000e+00
4.294872e+00 7.142857e-02 0.000000e+00
4.358974e+00 7.142857e-02 0.000000e+00
4.423077e+00 7.142857e-02 0.000000e+00
4.487179e+00 7.142857e-02 0.000000e+00
4.551282e+00 7.142857e-02 0.000000e+00
4.615385e+00 7.142857e-02 0.000000e+00
4.679487e+00 7.142857e-02 0.000000e+00
4.743590e+00 7.142857e-02 0.000000e+00
4.807692e+00 7.142857e-02 0.000000e+00
4.871795e+00 7.142857e-02 0.000000e+00
4.935897e+00 7.142857e-02 0.000000e+00
5.000000e+00 7.142857e-02 0.000000e+00
0.000000e+00 1.428571e-01 0.000000e+00
6.410256e-02 1.428571e-01 0.000000e+00
1.282051e-01 1.428571e-01 0.000000e+00
1.923077e-01 1.428571e-01 0.000000e+00
2.564103e-01 1.428571e-01 0.000000e+00
3.205128e-01 1.428571e-01 0.000000e+00
3.846154e-01 1.428571e-01 0.000000e+00
4.487179e-01 1.428571e-01 0.000000e+00
5.128205e-01 1.428571e-01 0.000000e+00
5.769231e-01 1.428571e-01 0.000000e+00
6.410256e-01 1.428571e-01 0.000000e+00
7.051282e-01 1.428571e-01 0.000000e+00
7.692308e-01 1.428571e-01 0.000000e+00
8.333333e-01 1.428571e-01 0.000000e+00
8.974359e-01 1.428571e-01 0.000000e+00
9.615385e-01 1.428571e-01 0.000000e+00
1.025641e+00 1.428571e-01 0.000000e+00
1.089744e+00 1.428571e-01 0.000000e+00
1.153846e+00 1.428571e-01 0.000000e+00
1.217949e+00 1.428571e-01 0.000000e+00
1.282051e+00 1.428571e-01 0.000000e+00
1.346154e+00 1.428571e-01 0.000000e+00
1.410256e+00 1.428571e-01 0.000000e+00
1.474359e+00 1.428571e-01 0.000000e+00
1.538462e+00 1.428571e-01 0.000000e+00
1.602564e+00 1.428571e-01 0.000000e+00
1.666667e+00 1.428571e-01 0.000000e+00
1.730769e+00 1.428571e-01 0.000000e+00
1.794872e+00 1.428571e-01 0.000000e+00
1.858974e+00 1.428571e-01 0.000000e+00
1.923077e+00 1.428571e-01 0.000000e+00
1.987179e+00 1.428571e-01 0.000000e+00
2.051282e+00 1.428571e-01 0.000000e+00
2.115385e+00 1.428571e-01 0.000000e+00
2.179487e+00 1.428571e-01 0.000000e+00
2.243590e+00 1.428571e-01 0.000000e+00
2.307692e+00 1.428571e-01 0.000000e+00
2.371795e+00 1.428571e-01 0.000000e+00
2.435897e+00 1.428571e-01 0.000000e+00
2.500000e+00 1.428571e-01 0.000000e+00
2.564103e+00 1.428571e-01 0.000000e+00
2.628205e+00 1.428571e-01 0.000000e+00
2.692308e+00 1.428571e-01 0.000000e+00
2.756410e+00 1.428571e-01 0.000000e+00
2.820513e+00 1.428571e-01 0.000000e+00
2.884615e+00 1.428571e-01 0.000000e+00
2.948718e+00 1.428571e-01 0.000000e+00
3.012821e+00 1.428571e-01 0.000000e+00
3.076923e+00 1.428571e-01 0.000000e+00
3.141026e+00 1.428571e-01 0.000000e+00
3.205128e+00 1.428571e-01 0.000000e+00
3.269231e+00 1.428571e-01 0.000000e+00
3.333333e+00 1.428571e-01 0.000000e+00
3.397436e+00 1.428571e-01 0.000000e+00
3.461538e+00 1.428571e-01 0.000000e+00
3.525641e+00 1.428571e-01 0.000000e+00
3.589744e+00 1.428571e-01 0.000000e+00
3.653846e+00 1.428571e-01 0.000000e+00
3.717949e+00 1.428571e-01 0.000000e+00
3.782051e+00 1.428571e-01 0.000000e+00
3.846154e+00 1.428571e-01 0.000000e+00
3.910256e+00 1.428571e-01 0.000000e+00
3.974359e+00 1.428571e-01 0.000000e+00
4.038462e+00 1.428571e-01 0.000000e+00
4.102564e+00 1.428571e-01 0.000000e+00
4.166667e+00 1.428571e-01 0.000000e+00
4.230769e+00 1.428571e-01 0.000000e+00
4.294872e+00 1.428571e-01 0.000000e+00
4.358974e+00 1.428571e-01 0.000000e+00
4.423077e+00 1.428571e-01 0.000000e+00
4.487179e+00 1.428571e-01 0.000000e+00
4.551282e+00 1.428571e-01 0.000000e+00
4.615385e+00 1.428571e-01 0.000000e+00
4.679487e+00 1.428571e-01 0.000000e+00
4.743590e+00 1.428571e-01 0.000000e+00
4.807692e+00 1.428571e-01 0.000000e+00
4.871795e+00 1.428571e-01 0.000000e+00
4.935897e+00 1.428571e-01 0.000000e+00
5.000000e+00 1.428571e-01 0.000000e+00
0.000000e+00 2.142857e-01 0.000000e+00
6.410256e-02 2.142857e-01 0.000000e+00
1.282051e-01 2.142857e-01 0.000000e+00
1.923077e-01 2.142857e-01 0.000000e+00
2.564103e-01 2.142857e-01 0.000000e+00
3.205128e-01 2.142857e-01 0.000000e+00
3.846154e-01 2.142857e-01 0.000000e+00
4.487179e-01 2.142857e-01 0.000000e+00
5.128205e-01 2.142857e-01 0.000000e+00
5.769231e-01 2.142857e-01 0.000000e+00
6.410256e-01 2.142857e-01 0.000000e+00
7.051282e-01 2.142857e-01 0.000000e+00
7.692308e-01 2.142857e-01 0.000000e+00
8.333333e-01 2.142857e-01 0.000000e+00
[...]
<PointData>
<DataArray Name="Velocity" type="Float64" format="ascii" NumberOfComponents="3">
0.000000e+00 0.000000e+00 0
0.000000e+00 0.000000e+00 0
0.000000e+00 0.000000e+00 0
0.000000e+00 0.000000e+00 0
0.000000e+00 0.000000e+00 0
0.000000e+00 0.000000e+00 0
0.000000e+00 0.000000e+00 0
0.000000e+00 0.000000e+00 0
0.000000e+00 0.000000e+00 0
0.000000e+00 0.000000e+00 0
0.000000e+00 0.000000e+00 0
0.000000e+00 0.000000e+00 0
0.000000e+00 0.000000e+00 0
0.000000e+00 0.000000e+00 0
0.000000e+00 0.000000e+00 0
0.000000e+00 0.000000e+00 0
0.000000e+00 0.000000e+00 0
0.000000e+00 0.000000e+00 0
0.000000e+00 0.000000e+00 0
0.000000e+00 0.000000e+00 0
0.000000e+00 0.000000e+00 0
0.000000e+00 0.000000e+00 0
0.000000e+00 0.000000e+00 0
0.000000e+00 0.000000e+00 0
0.000000e+00 0.000000e+00 0
0.000000e+00 0.000000e+00 0
0.000000e+00 0.000000e+00 0
0.000000e+00 0.000000e+00 0
0.000000e+00 0.000000e+00 0
0.000000e+00 0.000000e+00 0
0.000000e+00 0.000000e+00 0
0.000000e+00 0.000000e+00 0
0.000000e+00 0.000000e+00 0
0.000000e+00 0.000000e+00 0
0.000000e+00 0.000000e+00 0
-2.610179e-17 0.000000e+00 0
0.000000e+00 0.000000e+00 0
0.000000e+00 0.000000e+00 0
0.000000e+00 0.000000e+00 0
4.946554e-18 0.000000e+00 0
0.000000e+00 0.000000e+00 0
0.000000e+00 0.000000e+00 0
0.000000e+00 0.000000e+00 0
1.575857e-19 0.000000e+00 0
0.000000e+00 0.000000e+00 0
0.000000e+00 0.000000e+00 0
0.000000e+00 0.000000e+00 0
1.226508e-17 0.000000e+00 0
0.000000e+00 0.000000e+00 0
0.000000e+00 0.000000e+00 0
0.000000e+00 0.000000e+00 0
-8.686808e-18 0.000000e+00 0
0.000000e+00 0.000000e+00 0
0.000000e+00 0.000000e+00 0
0.000000e+00 0.000000e+00 0
-2.707195e-17 0.000000e+00 0
0.000000e+00 0.000000e+00 0
0.000000e+00 0.000000e+00 0
0.000000e+00 0.000000e+00 0
-2.202078e-17 0.000000e+00 0
0.000000e+00 0.000000e+00 0
0.000000e+00 0.000000e+00 0
0.000000e+00 0.000000e+00 0
1.688967e-17 0.000000e+00 0
0.000000e+00 0.000000e+00 0
0.000000e+00 0.000000e+00 0
0.000000e+00 0.000000e+00 0
0.000000e+00 0.000000e+00 0
0.000000e+00 0.000000e+00 0
0.000000e+00 0.000000e+00 0
1.348551e-17 0.000000e+00 0
0.000000e+00 0.000000e+00 0
0.000000e+00 0.000000e+00 0
0.000000e+00 0.000000e+00 0
0.000000e+00 0.000000e+00 0
0.000000e+00 0.000000e+00 0
0.000000e+00 0.000000e+00 0
0.000000e+00 0.000000e+00 0
-1.762754e-18 0.000000e+00 0
0.000000e+00 0.000000e+00 0
-1.907633e-01 -3.009623e-01 0
-1.554435e-02 -2.291596e-02 0
-5.857251e-02 -3.982630e-02 0
-2.475979e-02 -1.802074e-02 0
-2.785357e-02 -1.839836e-02 0
-2.029400e-02 -9.566274e-03 0
-2.822287e-02 -6.126437e-04 0
6.836820e-01 -5.782285e-02 0
0.000000e+00 0.000000e+00 0
-8.441157e-02 1.090014e-01 0
-1.551856e-01 8.761152e-02 0
-2.139459e-01 7.217171e-02 0
-2.636592e-01 6.126203e-02 0
-3.066282e-01 5.342080e-02 0
-3.446103e-01 4.775316e-02 0
-3.789514e-01 4.367957e-02 0
-4.106973e-01 4.080544e-02 0
-4.406729e-01 3.884655e-02 0
-4.695318e-01 3.758283e-02 0
-4.977745e-01 3.682464e-02 0
-5.257409e-01 3.638537e-02 0
-5.536086e-01 3.605437e-02 0
-5.813930e-01 3.555923e-02 0
-6.089137e-01 3.450648e-02 0
-6.356712e-01 3.228625e-02 0
-6.605014e-01 2.796707e-02 0
-6.809137e-01 2.036872e-02 0
-6.926468e-01 8.567321e-03 0
-6.906539e-01 -7.426152e-03 0
-6.724395e-01 -2.519780e-02 0
-6.392015e-01 -4.194482e-02 0
-5.927809e-01 -5.665699e-02 0
-5.353083e-01 -6.888231e-02 0
-4.692011e-01 -7.854480e-02 0
-3.963450e-01 -8.545615e-02 0
-3.193853e-01 -8.961734e-02 0
-2.400916e-01 -9.156204e-02 0
-1.597414e-01 -9.206730e-02 0
-8.055167e-02 -9.176576e-02 0
-4.451800e-03 -9.042284e-02 0
6.819502e-02 -8.758933e-02 0
1.369275e-01 -8.151371e-02 0
2.010509e-01 -7.379607e-02 0
2.604605e-01 -6.743723e-02 0
3.152909e-01 -6.190178e-02 0
3.657410e-01 -5.682477e-02 0
4.120295e-01 -5.207775e-02 0
4.543868e-01 -4.762392e-02 0
4.930508e-01 -4.345483e-02 0
5.282636e-01 -3.956801e-02 0
5.602671e-01 -3.595987e-02 0
5.892997e-01 -3.262399e-02 0
6.155929e-01 -2.955132e-02 0
6.393697e-01 -2.673078e-02 0
6.608426e-01 -2.414997e-02 0
6.802129e-01 -2.179574e-02 0
6.976705e-01 -1.965468e-02 0
7.133937e-01 -1.771337e-02 0
7.275492e-01 -1.595866e-02 0
7.402926e-01 -1.437770e-02 0
7.517685e-01 -1.295801e-02 0
7.621107e-01 -1.168754e-02 0
7.714429e-01 -1.055456e-02 0
7.798785e-01 -9.547760e-03 0
7.875213e-01 -8.656105e-03 0
7.944658e-01 -7.868858e-03 0
8.007968e-01 -7.175481e-03 0
8.065904e-01 -6.565512e-03 0
8.119134e-01 -6.028376e-03 0
8.168238e-01 -5.553071e-03 0
8.213699e-01 -5.127671e-03 0
8.255896e-01 -4.738540e-03 0
8.295092e-01 -4.369089e-03 0
8.331403e-01 -3.997884e-03 0
8.364753e-01 -3.595871e-03 0
8.394782e-01 -3.125952e-03 0
8.420823e-01 -2.516443e-03 0
8.420823e-01 -2.163934e-03 0
0.000000e+00 0.000000e+00 0
-1.545871e-01 -1.614403e-01 0
-1.441854e-02 -8.727614e-03 0
-4.914494e-02 -1.936909e-02 0
-2.157658e-02 -9.761145e-03 0
-2.376214e-02 -9.818770e-03 0
-1.881541e-02 -4.271762e-03 0
-2.829570e-02 3.552373e-03 0
6.836652e-01 -8.964864e-02 0
0.000000e+00 0.000000e+00 0
-4.184261e-02 1.729231e-01 0
-8.136860e-02 1.443395e-01 0
-1.153023e-01 1.208717e-01 0
-1.441024e-01 1.032757e-01 0
-1.686931e-01 9.020382e-02 0
-1.900025e-01 8.058986e-02 0
-2.088409e-01 7.364103e-02 0
-2.258958e-01 6.877656e-02 0
-2.417632e-01 6.555952e-02 0
-2.569756e-01 6.362859e-02 0
-2.719830e-01 6.263420e-02 0
-2.870457e-01 6.221634e-02 0
-3.022623e-01 6.201339e-02 0
-3.177009e-01 6.162675e-02 0
-3.335063e-01 6.048251e-02 0
-3.499622e-01 5.748445e-02 0
-3.671896e-01 5.041412e-02 0
-3.833345e-01 3.582019e-02 0
-3.921313e-01 1.085431e-02 0
-3.818367e-01 -2.251576e-02 0
-3.558800e-01 -5.733168e-02 0
-3.173532e-01 -8.876152e-02 0
-2.682588e-01 -1.157659e-01 0
-2.104529e-01 -1.377023e-01 0
-1.461515e-01 -1.548441e-01 0
-7.854156e-02 -1.669368e-01 0
-9.079514e-03 -1.741101e-01 0
6.095535e-02 -1.778882e-01 0
1.303282e-01 -1.777724e-01 0
1.975208e-01 -1.730364e-01 0
2.612121e-01 -1.657457e-01 0
3.209976e-01 -1.575363e-01 0
3.768706e-01 -1.480389e-01 0
4.305316e-01 -1.376506e-01 0
4.810500e-01 -1.272956e-01 0
5.279640e-01 -1.173121e-01 0
5.711891e-01 -1.077940e-01 0
6.108105e-01 -9.877642e-02 0
6.469872e-01 -9.028052e-02 0
6.799118e-01 -8.231949e-02 0
7.097911e-01 -7.489781e-02 0
7.368365e-01 -6.801134e-02 0
7.612578e-01 -6.164854e-02 0
7.832599e-01 -5.579213e-02 0
8.030400e-01 -5.042082e-02 0
8.207868e-01 -4.551074e-02 0
8.366792e-01 -4.103664e-02 0
8.508863e-01 -3.697275e-02 0
8.635672e-01 -3.329332e-02 0
8.748710e-01 -2.997301e-02 0
8.849373e-01 -2.698709e-02 0
8.938959e-01 -2.431147e-02 0
9.018676e-01 -2.192278e-02 0
9.089639e-01 -1.979829e-02 0
9.152874e-01 -1.791597e-02 0
9.209319e-01 -1.625436e-02 0
9.259826e-01 -1.479259e-02 0
9.305167e-01 -1.351022e-02 0
9.346029e-01 -1.238708e-02 0
9.383021e-01 -1.140298e-02 0
9.416673e-01 -1.053717e-02 0
9.447436e-01 -9.767573e-03 0
9.475680e-01 -9.069515e-03 0
9.501688e-01 -8.413587e-03 0
9.525644e-01 -7.762171e-03 0
9.547620e-01 -7.062229e-03 0
9.567529e-01 -6.247860e-03 0
9.585214e-01 -4.905223e-03 0
9.585214e-01 -4.006947e-03 0
0.000000e+00 0.000000e+00 0
-2.235221e-01 -2.010752e-01 0
-1.943075e-02 -8.131050e-03 0
-6.981755e-02 -1.947983e-02 0
-2.881384e-02 -7.614223e-03 0
-3.143825e-02 -7.366084e-03 0
-2.125655e-02 -1.959355e-03 0
-2.826128e-02 5.224408e-03 0
6.826826e-01 -1.022288e-01 0
0.000000e+00 0.000000e+00 0
-1.065757e-02 1.996706e-01 0
-2.237451e-02 1.694671e-01 0
-3.169189e-02 1.420755e-01 0
-3.847772e-02 1.207551e-01 0
-4.314458e-02 1.045672e-01 0
-4.610084e-02 9.248978e-02 0
-4.768587e-02 8.367543e-02 0
-4.818376e-02 7.749083e-02 0
-4.786802e-02 7.347879e-02 0
-4.708854e-02 7.125681e-02 0
-4.641625e-02 7.033182e-02 0
-4.606844e-02 7.012558e-02 0
-4.587803e-02 7.021352e-02 0
-4.559560e-02 7.037441e-02 0
-4.492697e-02 7.045524e-02 0
-4.388166e-02 6.981957e-02 0
-4.452036e-02 6.515381e-02 0
-4.680546e-02 4.816131e-02 0
-3.755963e-02 6.898738e-03 0
-1.409126e-02 -4.782000e-02 0
2.011628e-02 -9.705044e-02 0
6.296684e-02 -1.395795e-01 0
1.123381e-01 -1.757741e-01 0
1.662699e-01 -2.049444e-01 0
2.230973e-01 -2.255314e-01 0
2.807095e-01 -2.381932e-01 0
3.383075e-01 -2.450564e-01 0
3.947409e-01 -2.469018e-01 0
4.488375e-01 -2.442400e-01 0
5.007844e-01 -2.376075e-01 0
5.509095e-01 -2.280111e-01 0
5.984275e-01 -2.164657e-01 0
6.430261e-01 -2.035657e-01 0
6.849287e-01 -1.898815e-01 0
7.240403e-01 -1.760045e-01 0
7.602434e-01 -1.623424e-01 0
7.935112e-01 -1.491393e-01 0
8.239011e-01 -1.365383e-01 0
8.515248e-01 -1.246224e-01 0
8.765251e-01 -1.134362e-01 0
8.990606e-01 -1.029983e-01 0
9.192961e-01 -9.330839e-02 0
9.373968e-01 -8.435280e-02 0
9.535247e-01 -7.610853e-02 0
9.678369e-01 -6.854642e-02 0
9.804837e-01 -6.163359e-02 0
9.916088e-01 -5.533514e-02 0
1.001348e+00 -4.961550e-02 0
1.009832e+00 -4.443912e-02 0
1.017181e+00 -3.977100e-02 0
1.023510e+00 -3.557686e-02 0
1.028927e+00 -3.182327e-02 0
1.033534e+00 -2.847758e-02 0
1.037423e+00 -2.550798e-02 0
1.040683e+00 -2.288342e-02 0
1.043392e+00 -2.057362e-02 0
1.045623e+00 -1.854906e-02 0
1.047444e+00 -1.678086e-02 0
1.048914e+00 -1.524063e-02 0
1.050086e+00 -1.390015e-02 0
1.051007e+00 -1.273081e-02 0
1.051720e+00 -1.170279e-02 0
1.052260e+00 -1.078370e-02 0
1.052659e+00 -9.936448e-03 0
1.052944e+00 -9.115996e-03 0
1.053140e+00 -8.263111e-03 0
1.053275e+00 -7.315055e-03 0
1.053394e+00 -5.805328e-03 0
1.053394e+00 -4.800545e-03 0
0.000000e+00 0.000000e+00 0
-3.032180e-01 -1.727961e-01 0
-2.896976e-02 -3.145877e-03 0
-9.641439e-02 -1.321199e-02 0
-4.518175e-02 -4.898656e-03 0
-4.639021e-02 -4.256070e-03 0
-2.845452e-02 -3.500929e-04 0
-2.683637e-02 5.719534e-03 0
6.579965e-01 -1.009384e-01 0
0.000000e+00 0.000000e+00 0
1.110296e-02 1.978559e-01 0
2.227806e-02 1.677782e-01 0
3.431434e-02 1.388158e-01 0
4.673243e-02 1.160378e-01 0
5.919528e-02 9.869864e-02 0
7.172608e-02 8.565064e-02 0
8.446863e-02 7.596249e-02 0
9.759926e-02 6.898002e-02 0
1.112648e-01 6.433962e-02 0
1.254413e-01 6.201139e-02 0
1.391024e-01 6.149800e-02 0
1.520344e-01 6.161708e-02 0
1.648884e-01 6.148698e-02 0
1.783837e-01 6.056746e-02 0
1.935930e-01 5.857314e-02 0
2.120912e-01 5.703181e-02 0
2.377757e-01 5.367250e-02 0
2.771236e-01 2.806437e-02 0
3.276933e-01 -2.559824e-02 0
3.767242e-01 -8.678280e-02 0
4.250986e-01 -1.431960e-01 0
4.736986e-01 -1.915227e-01 0
5.220042e-01 -2.308746e-01 0
5.691807e-01 -2.611193e-01 0
6.147745e-01 -2.823621e-01 0
6.593808e-01 -2.953137e-01 0
7.024643e-01 -3.011734e-01 0
7.435440e-01 -3.010499e-01 0
7.823233e-01 -2.959350e-01 0
8.188035e-01 -2.867734e-01 0
8.531126e-01 -2.745477e-01 0
8.852082e-01 -2.601804e-01 0
9.150868e-01 -2.444257e-01 0
9.428408e-01 -2.279234e-01 0
9.685133e-01 -2.112175e-01 0
9.921215e-01 -1.947224e-01 0
1.013695e+00 -1.787268e-01 0
1.033288e+00 -1.634199e-01 0
1.050979e+00 -1.489185e-01 0
1.066859e+00 -1.352879e-01 0
1.081030e+00 -1.225568e-01 0
1.093598e+00 -1.107287e-01 0
1.104670e+00 -9.978891e-02 0
1.114351e+00 -8.971102e-02 0
1.122745e+00 -8.046078e-02 0
1.129950e+00 -7.199942e-02 0
1.136064e+00 -6.428587e-02 0
1.141179e+00 -5.727823e-02 0
1.145384e+00 -5.093474e-02 0
1.148764e+00 -4.521421e-02 0
1.151402e+00 -4.007620e-02 0
1.153375e+00 -3.548102e-02 0
1.154759e+00 -3.138971e-02 0
1.155622e+00 -2.776399e-02 0
1.156030e+00 -2.456627e-02 0
1.156045e+00 -2.175972e-02 0
1.155722e+00 -1.930830e-02 0
1.155113e+00 -1.717677e-02 0
1.154265e+00 -1.533063e-02 0
1.153220e+00 -1.373584e-02 0
1.152018e+00 -1.235843e-02 0
1.150693e+00 -1.116391e-02 0
1.149279e+00 -1.011608e-02 0
1.147807e+00 -9.175611e-03 0
1.146311e+00 -8.298100e-03 0
1.144826e+00 -7.431012e-03 0
1.143402e+00 -6.530186e-03 0
1.142105e+00 -5.194393e-03 0
1.142105e+00 -4.321281e-03 0
0.000000e+00 0.000000e+00 0
-5.119713e-01 -1.682265e-01 0
-3.208177e-02 2.679083e-03 0
-1.185644e-01 -7.445931e-03 0
-6.189757e-02 -2.910251e-03 0
-6.716238e-02 -2.299133e-03 0
-5.433390e-02 1.872879e-04 0
-4.034862e-02 4.552078e-03 0
4.562771e-01 -9.112505e-02 0
0.000000e+00 0.000000e+00 0
2.086363e-02 1.748477e-01 0
5.194947e-02 1.436034e-01 0
8.287864e-02 1.148268e-01 0
1.114590e-01 9.303111e-02 0
1.375955e-01 7.671760e-02 0
1.620819e-01 6.432852e-02 0
1.856474e-01 5.484579e-02 0
2.089647e-01 4.763268e-02 0
2.327006e-01 4.245531e-02 0
2.576772e-01 4.023826e-02 0
2.858395e-01 4.069991e-02 0
3.184863e-01 4.139306e-02 0
3.560822e-01 4.085342e-02 0
3.991861e-01 3.838985e-02 0
4.486072e-01 3.289583e-02 0
5.058823e-01 2.058780e-02 0
5.746743e-01 -7.310373e-03 0
6.551797e-01 -5.203220e-02 0
7.323475e-01 -1.040845e-01 0
7.992775e-01 -1.563569e-01 0
8.563978e-01 -2.051072e-01 0
9.052796e-01 -2.475597e-01 0
9.473503e-01 -2.821681e-01 0
9.837075e-01 -3.083167e-01 0
1.015282e+00 -3.260397e-01 0
1.042997e+00 -3.359044e-01 0
1.067479e+00 -3.388380e-01 0
1.089188e+00 -3.358873e-01 0
1.108513e+00 -3.281003e-01 0
1.125829e+00 -3.164867e-01 0
1.141470e+00 -3.020045e-01 0
1.155673e+00 -2.855225e-01 0
1.168618e+00 -2.677847e-01 0
1.180450e+00 -2.494137e-01 0
1.191263e+00 -2.309171e-01 0
1.201110e+00 -2.126876e-01 0
1.210025e+00 -1.950109e-01 0
1.218031e+00 -1.780829e-01 0
1.225153e+00 -1.620289e-01 0
1.231420e+00 -1.469213e-01 0
1.236862e+00 -1.327932e-01 0
1.241512e+00 -1.196500e-01 0
1.245407e+00 -1.074777e-01 0
1.248582e+00 -9.624906e-02 0
1.251078e+00 -8.592845e-02 0
1.252932e+00 -7.647547e-02 0
1.254187e+00 -6.784729e-02 0
1.254883e+00 -6.000033e-02 0
1.255063e+00 -5.289115e-02 0
1.254770e+00 -4.647682e-02 0
1.254048e+00 -4.071492e-02 0
1.252942e+00 -3.556342e-02 0
1.251495e+00 -3.098055e-02 0
1.249749e+00 -2.692478e-02 0
1.247746e+00 -2.335490e-02 0
1.245524e+00 -2.023022e-02 0
1.243120e+00 -1.751066e-02 0
1.240567e+00 -1.515710e-02 0
1.237897e+00 -1.313139e-02 0
1.235139e+00 -1.139615e-02 0
1.232321e+00 -9.914700e-03 0
1.229470e+00 -8.650901e-03 0
1.226612e+00 -7.568340e-03 0
1.223776e+00 -6.629367e-03 0
1.220995e+00 -5.794500e-03 0
1.218307e+00 -5.021837e-03 0
1.215762e+00 -4.282843e-03 0
1.213418e+00 -3.297769e-03 0
1.213418e+00 -2.675498e-03 0
0.000000e+00 0.000000e+00 0
-1.277484e+00 -1.522030e-01 0
-9.654477e-01 4.160207e-02 0
-1.011487e+00 8.423022e-02 0
-9.848182e-01 1.105318e-01 0
-9.906145e-01 1.118089e-01 0
-9.909276e-01 8.257005e-02 0
-9.836619e-01 2.025793e-02 0
-8.221649e-01 -9.259238e-02 0
0.000000e+00 0.000000e+00 0
1.001567e-01 1.399705e-01 0
1.868237e-01 9.867617e-02 0
2.611203e-01 7.250567e-02 0
3.261513e-01 5.506797e-02 0
3.847740e-01 4.229066e-02 0
4.389914e-01 3.210765e-02 0
4.903352e-01 2.372220e-02 0
5.400404e-01 1.654976e-02 0
5.892263e-01 1.006041e-02 0
6.391500e-01 2.799964e-03 0
6.919284e-01 -6.260191e-03 0
7.487588e-01 -1.665297e-02 0
8.099548e-01 -2.843520e-02 0
8.758560e-01 -4.253132e-02 0
9.466443e-01 -6.031648e-02 0
1.022202e+00 -8.344249e-02 0
1.099757e+00 -1.126871e-01 0
1.171345e+00 -1.476283e-01 0
1.232514e+00 -1.861639e-01 0
1.282563e+00 -2.250099e-01 0
1.321726e+00 -2.613123e-01 0
1.351008e+00 -2.928693e-01 0
1.371778e+00 -3.182653e-01 0
1.385495e+00 -3.368146e-01 0
1.393590e+00 -3.484275e-01 0
1.397389e+00 -3.534757e-01 0
1.398019e+00 -3.526429e-01 0
1.396403e+00 -3.467736e-01 0
1.393288e+00 -3.367636e-01 0
1.389271e+00 -3.234957e-01 0
1.384812e+00 -3.078014e-01 0
1.380239e+00 -2.904310e-01 0
1.375773e+00 -2.720343e-01 0
1.371549e+00 -2.531561e-01 0
1.367630e+00 -2.342391e-01 0
1.364025e+00 -2.156284e-01 0
1.360709e+00 -1.975808e-01 0
1.357638e+00 -1.802776e-01 0
1.354756e+00 -1.638383e-01 0
1.352008e+00 -1.483347e-01 0
1.349341e+00 -1.338022e-01 0
1.346708e+00 -1.202495e-01 0
1.344067e+00 -1.076665e-01 0
1.341382e+00 -9.602987e-02 0
1.338625e+00 -8.530791e-02 0
1.335773e+00 -7.546407e-02 0
1.332810e+00 -6.645938e-02 0
1.329725e+00 -5.825415e-02 0
1.326513e+00 -5.080872e-02 0
1.323177e+00 -4.408360e-02 0
1.319721e+00 -3.803923e-02 0
1.316158e+00 -3.263556e-02 0
1.312501e+00 -2.783187e-02 0
1.308766e+00 -2.358676e-02 0
1.304969e+00 -1.985837e-02 0
1.301127e+00 -1.660488e-02 0
1.297257e+00 -1.378462e-02 0
1.293375e+00 -1.135691e-02 0
1.289495e+00 -9.282609e-03 0
1.285634e+00 -7.523165e-03 0
1.281807e+00 -6.041326e-03 0
1.278028e+00 -4.802162e-03 0
1.274316e+00 -3.771850e-03 0
1.270693e+00 -2.916792e-03 0
1.267187e+00 -2.203750e-03 0
1.263832e+00 -1.599989e-03 0
1.260671e+00 -1.082880e-03 0
1.257741e+00 -5.161287e-04 0
1.257741e+00 -1.878858e-04 0
9.505449e-01 -1.766706e-19 0
3.330669e-15 -2.232829e-19 0
3.330669e-15 -3.879576e-19 0
3.330669e-15 -7.189673e-19 0
3.330669e-15 -1.285798e-18 0
3.330669e-15 -2.226394e-18 0
3.330669e-15 -3.825941e-18 0
3.330669e-15 -6.787549e-18 0
3.330669e-15 -1.186269e-17 0
9.650676e-01 -1.251106e-02 0
1.054601e+00 -2.914492e-02 0
1.120933e+00 -3.575557e-02 0
1.175695e+00 -4.042346e-02 0
1.223568e+00 -4.475401e-02 0
1.267207e+00 -4.901809e-02 0
1.307931e+00 -5.329640e-02 0
1.346730e+00 -5.775121e-02 0
1.384377e+00 -6.255974e-02 0
1.421511e+00 -6.798058e-02 0
1.458621e+00 -7.420082e-02 0
1.495234e+00 -8.143515e-02 0
1.531132e+00 -9.012155e-02 0
1.566538e+00 -1.007687e-01 0
1.601485e+00 -1.139208e-01 0
1.635663e+00 -1.301748e-01 0
1.668116e+00 -1.500231e-01 0
1.697156e+00 -1.734984e-01 0
1.720964e+00 -1.999606e-01 0
1.737708e+00 -2.280123e-01 0
1.746586e+00 -2.557648e-01 0
1.747625e+00 -2.813745e-01 0
1.741492e+00 -3.033310e-01 0
1.729256e+00 -3.205962e-01 0
1.712176e+00 -3.326215e-01 0
1.691549e+00 -3.392918e-01 0
1.668594e+00 -3.408391e-01 0
1.644380e+00 -3.377399e-01 0
1.619790e+00 -3.306160e-01 0
1.595523e+00 -3.201525e-01 0
1.572105e+00 -3.070409e-01 0
1.549906e+00 -2.919400e-01 0
1.529160e+00 -2.754510e-01 0
1.509989e+00 -2.581013e-01 0
1.492425e+00 -2.403391e-01 0
1.476431e+00 -2.225331e-01 0
1.461923e+00 -2.049765e-01 0
1.448783e+00 -1.878935e-01 0
1.436880e+00 -1.714484e-01 0
1.426075e+00 -1.557552e-01 0
1.416233e+00 -1.408877e-01 0
1.407226e+00 -1.268876e-01 0
1.398934e+00 -1.137728e-01 0
1.391253e+00 -1.015431e-01 0
1.384085e+00 -9.018558e-02 0
1.377347e+00 -7.967873e-02 0
1.370965e+00 -6.999582e-02 0
1.364875e+00 -6.110758e-02 0
1.359025e+00 -5.298389e-02 0
1.353372e+00 -4.559450e-02 0
1.347883e+00 -3.890867e-02 0
1.342534e+00 -3.289449e-02 0
1.337310e+00 -2.751808e-02 0
1.332202e+00 -2.274324e-02 0
1.327204e+00 -1.853165e-02 0
1.322314e+00 -1.484313e-02 0
1.317529e+00 -1.163733e-02 0
1.312852e+00 -8.872388e-03 0
1.308282e+00 -6.507601e-03 0
1.303808e+00 -4.505937e-03 0
1.299424e+00 -2.828888e-03 0
1.295136e+00 -1.439197e-03 0
1.290951e+00 -3.043403e-04 0
1.286885e+00 6.045869e-04 0
1.282956e+00 1.314249e-03 0
1.279187e+00 1.850656e-03 0
1.275609e+00 2.239105e-03 0
1.272259e+00 2.504980e-03 0
1.269161e+00 2.656818e-03 0
1.269161e+00 2.703125e-03 0
2.095970e+00 -1.989134e-04 0
2.095970e+00 -2.513942e-04 0
2.096185e+00 -4.368014e-04 0
2.096566e+00 -8.094852e-04 0
2.097247e+00 -1.447680e-03 0
2.098409e+00 -2.506697e-03 0
2.100317e+00 -4.307626e-03 0
2.103367e+00 -7.642101e-03 0
2.108129e+00 -1.335621e-02 0
2.112188e+00 -2.133253e-02 0
2.110734e+00 -2.952614e-02 0
2.108170e+00 -3.625732e-02 0
2.105713e+00 -4.185813e-02 0
2.103441e+00 -4.690154e-02 0
2.101271e+00 -5.171419e-02 0
2.099202e+00 -5.650340e-02 0
2.097228e+00 -6.145939e-02 0
2.095348e+00 -6.677662e-02 0
2.093547e+00 -7.266870e-02 0
2.091754e+00 -7.934865e-02 0
2.089952e+00 -8.705790e-02 0
2.088055e+00 -9.610501e-02 0
2.085853e+00 -1.068280e-01 0
2.083002e+00 -1.195558e-01 0
2.078975e+00 -1.345621e-01 0
2.073001e+00 -1.519635e-01 0
2.064096e+00 -1.715741e-01 0
2.051269e+00 -1.928141e-01 0
2.033708e+00 -2.147138e-01 0
2.011073e+00 -2.360602e-01 0
1.983523e+00 -2.556354e-01 0
1.951636e+00 -2.723997e-01 0
1.916270e+00 -2.855988e-01 0
1.878432e+00 -2.947980e-01 0
1.839153e+00 -2.998638e-01 0
1.799403e+00 -3.009157e-01 0
1.760031e+00 -2.982617e-01 0
1.721731e+00 -2.923335e-01 0
1.685037e+00 -2.836284e-01 0
1.650335e+00 -2.726645e-01 0
1.617869e+00 -2.599482e-01 0
1.587768e+00 -2.459520e-01 0
1.560063e+00 -2.311004e-01 0
1.534711e+00 -2.157626e-01 0
1.511612e+00 -2.002507e-01 0
1.490626e+00 -1.848206e-01 0
1.471592e+00 -1.696761e-01 0
1.454337e+00 -1.549743e-01 0
1.438685e+00 -1.408316e-01 0
1.424467e+00 -1.273307e-01 0
1.411522e+00 -1.145263e-01 0
1.399701e+00 -1.024510e-01 0
1.388868e+00 -9.111986e-02 0
1.378899e+00 -8.053479e-02 0
1.369683e+00 -7.068836e-02 0
1.361118e+00 -6.156725e-02 0
1.353115e+00 -5.315536e-02 0