<?xml version="1.0"?>
<VTKFile type="StructuredGrid">
<StructuredGrid WholeExtent="0 158 0 30 0 0 ">
<Piece Extent="0 158 0 30 0 0 ">
<Points>
<DataArray type="Float64" format="ascii" NumberOfComponents="3">
0.000000e+00 0.000000e+00 0.000000e+00
3.164557e-02 0.000000e+00 0.000000e+00
6.329114e-02 0.000000e+00 0.000000e+00
9.493671e-02 0.000000e+00 0.000000e+00
1.265823e-01 0.000000e+00 0.000000e+00
1.582278e-01 0.000000e+00 0.000000e+00
1.898734e-01 0.000000e+00 0.000000e+00
2.215190e-01 0.000000e+00 0.000000e+00
2.531646e-01 0.000000e+00 0.000000e+00
2.848101e-01 0.000000e+00 0.000000e+00
3.164557e-01 0.000000e+00 0.000000e+00
3.481013e-01 0.000000e+00 0.000000e+00
3.797468e-01 0.000000e+00 0.000000e+00
4.113924e-01 0.000000e+00 0.000000e+00
4.430380e-01 0.000000e+00 0.000000e+00
4.746835e-01 0.000000e+00 0.000000e+00
5.063291e-01 0.000000e+00 0.000000e+00
5.379747e-01 0.000000e+00 0.000000e+00
5.696203e-01 0.000000e+00 0.000000e+00
6.012658e-01 0.000000e+00 0.000000e+00
6.329114e-01 0.000000e+00 0.000000e+00
6.645570e-01 0.000000e+00 0.000000e+00
6.962025e-01 0.000000e+00 0.000000e+00
7.278481e-01 0.000000e+00 0.000000e+00
7.594937e-01 0.000000e+00 0.000000e+00
7.911392e-01 0.000000e+00 0.000000e+00
8.227848e-01 0.000000e+00 0.000000e+00
8.544304e-01 0.000000e+00 0.000000e+00
8.860759e-01 0.000000e+00 0.000000e+00
9.177215e-01 0.000000e+00 0.000000e+00
9.493671e-01 0.000000e+00 0.000000e+00
9.810127e-01 0.000000e+00 0.000000e+00
1.012658e+00 0.000000e+00 0.000000e+00
1.044304e+00 0.000000e+00 0.000000e+00
1.075949e+00 0.000000e+00 0.000000e+00
1.107595e+00 0.000000e+00 0.000000e+00
1.139241e+00 0.000000e+00 0.000000e+00
1.170886e+00 0.000000e+00 0.000000e+00
1.202532e+00 0.000000e+00 0.000000e+00
1.234177e+00 0.000000e+00 0.000000e+00
1.265823e+00 0.000000e+00 0.000000e+00
1.297468e+00 0.000000e+00 0.000000e+00
1.329114e+00 0.000000e+00 0.000000e+00
1.360759e+00 0.000000e+00 0.000000e+00
1.392405e+00 0.000000e+00 0.000000e+00
1.424051e+00 0.000000e+00 0.000000e+00
1.455696e+00 0.000000e+00 0.000000e+00
1.487342e+00 0.000000e+00 0.000000e+00
1.518987e+00 0.000000e+00 0.000000e+00
1.550633e+00 0.000000e+00 0.000000e+00
1.582278e+00 0.000000e+00 0.000000e+00
1.613924e+00 0.000000e+00 0.000000e+00
1.645570e+00 0.000000e+00 0.000000e+00
1.677215e+00 0.000000e+00 0.000000e+00
1.708861e+00 0.000000e+00 0.000000e+00
1.740506e+00 0.000000e+00 0.000000e+00
1.772152e+00 0.000000e+00 0.000000e+00
1.803797e+00 0.000000e+00 0.000000e+00
1.835443e+00 0.000000e+00 0.000000e+00
1.867089e+00 0.000000e+00 0.000000e+00
1.898734e+00 0.000000e+00 0.000000e+00
1.930380e+00 0.000000e+00 0.000000e+00
1.962025e+00 0.000000e+00 0.000000e+00
1.993671e+00 0.000000e+00 0.000000e+00
2.025316e+00 0.000000e+00 0.000000e+00
2.056962e+00 0.000000e+00 0.000000e+00
2.088608e+00 0.000000e+00 0.000000e+00
2.120253e+00 0.000000e+00 0.000000e+00
2.151899e+00 0.000000e+00 0.000000e+00
2.183544e+00 0.000000e+00 0.000000e+00
2.215190e+00 0.000000e+00 0.000000e+00
2.246835e+00 0.000000e+00 0.000000e+00
2.278481e+00 0.000000e+00 0.000000e+00
2.310127e+00 0.000000e+00 0.000000e+00
2.341772e+00 0.000000e+00 0.000000e+00
2.373418e+00 0.000000e+00 0.000000e+00
2.405063e+00 0.000000e+00 0.000000e+00
2.436709e+00 0.000000e+00 0.000000e+00
2.468354e+00 0.000000e+00 0.000000e+00
2.500000e+00 0.000000e+00 0.000000e+00
2.531646e+00 0.000000e+00 0.000000e+00
2.563291e+00 0.000000e+00 0.000000e+00
2.594937e+00 0.000000e+00 0.000000e+00
2.626582e+00 0.000000e+00 0.000000e+00
2.658228e+00 0.000000e+00 0.000000e+00
2.689873e+00 0.000000e+00 0.000000e+00
2.721519e+00 0.000000e+00 0.000000e+00
2.753165e+00 0.000000e+00 0.000000e+00
2.784810e+00 0.000000e+00 0.000000e+00
2.816456e+00 0.000000e+00 0.000000e+00
2.848101e+00 0.000000e+00 0.000000e+00
2.879747e+00 0.000000e+00 0.000000e+00
2.911392e+00 0.000000e+00 0.000000e+00
2.943038e+00 0.000000e+00 0.000000e+00
2.974684e+00 0.000000e+00 0.000000e+00
3.006329e+00 0.000000e+00 0.000000e+00
3.037975e+00 0.000000e+00 0.000000e+00
3.069620e+00 0.000000e+00 0.000000e+00
3.101266e+00 0.000000e+00 0.000000e+00
3.132911e+00 0.000000e+00 0.000000e+00
3.164557e+00 0.000000e+00 0.000000e+00
3.196203e+00 0.000000e+00 0.000000e+00
3.227848e+00 0.000000e+00 0.000000e+00
3.259494e+00 0.000000e+00 0.000000e+00
3.291139e+00 0.000000e+00 0.000000e+00
3.322785e+00 0.000000e+00 0.000000e+00
3.354430e+00 0.000000e+00 0.000000e+00
3.386076e+00 0.000000e+00 0.000000e+00
3.417722e+00 0.000000e+00 0.000000e+00
3.449367e+00 0.000000e+00 0.000000e+00
3.481013e+00 0.000000e+00 0.000000e+00
3.512658e+00 0.000000e+00 0.000000e+00
3.544304e+00 0.000000e+00 0.000000e+00
3.575949e+00 0.000000e+00 0.000000e+00
3.607595e+00 0.000000e+00 0.000000e+00
3.639241e+00 0.000000e+00 0.000000e+00
3.670886e+00 0.000000e+00 0.000000e+00
3.702532e+00 0.000000e+00 0.000000e+00
3.734177e+00 0.000000e+00 0.000000e+00
3.765823e+00 0.000000e+00 0.000000e+00
3.797468e+00 0.000000e+00 0.000000e+00
3.829114e+00 0.000000e+00 0.000000e+00
3.860759e+00 0.000000e+00 0.000000e+00
3.892405e+00 0.000000e+00 0.000000e+00
3.924051e+00 0.000000e+00 0.000000e+00
3.955696e+00 0.000000e+00 0.000000e+00
3.987342e+00 0.000000e+00 0.000000e+00
4.018987e+00 0.000000e+00 0.000000e+00
4.050633e+00 0.000000e+00 0.000000e+00
4.082278e+00 0.000000e+00 0.000000e+00
4.113924e+00 0.000000e+00 0.000000e+00
4.145570e+00 0.000000e+00 0.000000e+00
4.177215e+00 0.000000e+00 0.000000e+00
4.208861e+00 0.000000e+00 0.000000e+00
4.240506e+00 0.000000e+00 0.000000e+00
4.272152e+00 0.000000e+00 0.000000e+00
4.303797e+00 0.000000e+00 0.000000e+00
4.335443e+00 0.000000e+00 0.000000e+00
4.367089e+00 0.000000e+00 0.000000e+00
4.398734e+00 0.000000e+00 0.000000e+00
4.430380e+00 0.000000e+00 0.000000e+00
4.462025e+00 0.000000e+00 0.000000e+00
4.493671e+00 0.000000e+00 0.000000e+00
4.525316e+00 0.000000e+00 0.000000e+00
4.556962e+00 0.000000e+00 0.000000e+00
4.588608e+00 0.000000e+00 0.000000e+00
4.620253e+00 0.000000e+00 0.000000e+00
4.651899e+00 0.000000e+00 0.000000e+00
4.683544e+00 0.000000e+00 0.000000e+00
4.715190e+00 0.000000e+00 0.000000e+00
4.746835e+00 0.000000e+00 0.000000e+00
4.778481e+00 0.000000e+00 0.000000e+00
4.810127e+00 0.000000e+00 0.000000e+00
4.841772e+00 0.000000e+00 0.000000e+00
4.873418e+00 0.000000e+00 0.000000e+00
4.905063e+00 0.000000e+00 0.000000e+00
4.936709e+00 0.000000e+00 0.000000e+00
4.968354e+00 0.000000e+00 0.000000e+00
5.000000e+00 0.000000e+00 0.000000e+00
0.000000e+00 3.333333e-02 0.000000e+00
3.164557e-02 3.333333e-02 0.000000e+00
6.329114e-02 3.333333e-02 0.000000e+00
9.493671e-02 3.333333e-02 0.000000e+00
1.265823e-01 3.333333e-02 0.000000e+00
1.582278e-01 3.333333e-02 0.000000e+00
1.898734e-01 3.333333e-02 0.000000e+00
2.215190e-01 3.333333e-02 0.000000e+00
2.531646e-01 3.333333e-02 0.000000e+00
2.848101e-01 3.333333e-02 0.000000e+00
3.164557e-01 3.333333e-02 0.000000e+00
3.481013e-01 3.333333e-02 0.000000e+00
3.797468e-01 3.333333e-02 0.000000e+00
4.113924e-01 3.333333e-02 0.000000e+00
4.430380e-01 3.333333e-02 0.000000e+00
4.746835e-01 3.333333e-02 0.000000e+00
5.063291e-01 3.333333e-02 0.000000e+00
5.379747e-01 3.333333e-02 0.000000e+00
5.696203e-01 3.333333e-02 0.000000e+00
6.012658e-01 3.333333e-02 0.000000e+00
6.329114e-01 3.333333e-02 0.000000e+00
6.645570e-01 3.333333e-02 0.000000e+00
6.962025e-01 3.333333e-02 0.000000e+00
7.278481e-01 3.333333e-02 0.000000e+00
7.594937e-01 3.333333e-02 0.000000e+00
7.911392e-01 3.333333e-02 0.000000e+00
8.227848e-01 3.333333e-02 0.000000e+00
8.544304e-01 3.333333e-02 0.000000e+00
8.860759e-01 3.333333e-02 0.000000e+00
9.177215e-01 3.333333e-02 0.000000e+00
9.493671e-01 3.333333e-02 0.000000e+00
9.810127e-01 3.333333e-02 0.000000e+00
1.012658e+00 3.333333e-02 0.000000e+00
1.044304e+00 3.333333e-02 0.000000e+00
1.075949e+00 3.333333e-02 0.000000e+00
1.107595e+00 3.333333e-02 0.000000e+00
1.139241e+00 3.333333e-02 0.000000e+00
1.170886e+00 3.333333e-02 0.000000e+00
1.202532e+00 3.333333e-02 0.000000e+00
1.234177e+00 3.333333e-02 0.000000e+00
1.265823e+00 3.333333e-02 0.000000e+00
1.297468e+00 3.333333e-02 0.000000e+00
1.329114e+00 3.333333e-02 0.000000e+00
1.360759e+00 3.333333e-02 0.000000e+00
1.392405e+00 3.333333e-02 0.000000e+00
1.424051e+00 3.333333e-02 0.000000e+00
1.455696e+00 3.333333e-02 0.000000e+00
1.487342e+00 3.333333e-02 0.000000e+00
1.518987e+00 3.333333e-02 0.000000e+00
1.550633e+00 3.333333e-02 0.000000e+00
1.582278e+00 3.333333e-02 0.000000e+00
1.613924e+00 3.333333e-02 0.000000e+00
1.645570e+00 3.333333e-02 0.000000e+00
1.677215e+00 3.333333e-02 0.000000e+00
1.708861e+00 3.333333e-02 0.000000e+00
1.740506e+00 3.333333e-02 0.000000e+00
1.772152e+00 3.333333e-02 0.000000e+00
1.803797e+00 3.333333e-02 0.000000e+00
1.835443e+00 3.333333e-02 0.000000e+00
1.867089e+00 3.333333e-02 0.000000e+00
1.898734e+00 3.333333e-02 0.000000e+00
1.930380e+00 3.333333e-02 0.000000e+00
1.962025e+00 3.333333e-02 0.000000e+00
1.993671e+00 3.333333e-02 0.000000e+00
2.025316e+00 3.333333e-02 0.000000e+00
2.056962e+00 3.333333e-02 0.000000e+00
2.088608e+00 3.333333e-02 0.000000e+00
2.120253e+00 3.333333e-02 0.000000e+00
2.151899e+00 3.333333e-02 0.000000e+00
2.183544e+00 3.333333e-02 0.000000e+00
2.215190e+00 3.333333e-02 0.000000e+00
2.246835e+00 3.333333e-02 0.000000e+00
2.278481e+00 3.333333e-02 0.000000e+00
2.310127e+00 3.333333e-02 0.000000e+00
2.341772e+00 3.333333e-02 0.000000e+00
2.373418e+00 3.333333e-02 0.000000e+00
2.405063e+00 3.333333e-02 0.000000e+00
2.436709e+00 3.333333e-02 0.000000e+00
2.468354e+00 3.333333e-02 0.000000e+00
2.500000e+00 3.333333e-02 0.000000e+00
2.531646e+00 3.333333e-02 0.000000e+00
2.563291e+00 3.333333e-02 0.000000e+00
2.594937e+00 3.333333e-02 0.000000e+00
2.626582e+00 3.333333e-02 0.000000e+00
2.658228e+00 3.333333e-02 0.000000e+00
2.689873e+00 3.333333e-02 0.000000e+00
2.721519e+00 3.333333e-02 0.000000e+00
2.753165e+00 3.333333e-02 0.000000e+00
2.784810e+00 3.333333e-02 0.000000e+00
2.816456e+00 3.333333e-02 0.000000e+00
2.848101e+00 3.333333e-02 0.000000e+00
2.879747e+00 3.333333e-02 0.000000e+00
[...]
<PointData>
<DataArray Name="Velocity" type="Float64" format="ascii" NumberOfComponents="3">
0.000000e+00 0.000000e+00 0
0.000000e+00 0.000000e+00 0
0.000000e+00 0.000000e+00 0
0.000000e+00 0.000000e+00 0
0.000000e+00 0.000000e+00 0
0.000000e+00 0.000000e+00 0
0.000000e+00 0.000000e+00 0
0.000000e+00 0.000000e+00 0
0.000000e+00 0.000000e+00 0
0.000000e+00 0.000000e+00 0
0.000000e+00 0.000000e+00 0
0.000000e+00 0.000000e+00 0
0.000000e+00 0.000000e+00 0
0.000000e+00 0.000000e+00 0
0.000000e+00 0.000000e+00 0
0.000000e+00 0.000000e+00 0
0.000000e+00 0.000000e+00 0
0.000000e+00 0.000000e+00 0
0.000000e+00 0.000000e+00 0
-1.082092e-19 0.000000e+00 0
0.000000e+00 0.000000e+00 0
0.000000e+00 0.000000e+00 0
0.000000e+00 0.000000e+00 0
-6.426965e-19 0.000000e+00 0
0.000000e+00 0.000000e+00 0
0.000000e+00 0.000000e+00 0
0.000000e+00 0.000000e+00 0
1.323469e-17 0.000000e+00 0
0.000000e+00 0.000000e+00 0
0.000000e+00 0.000000e+00 0
0.000000e+00 0.000000e+00 0
-1.463772e-17 0.000000e+00 0
0.000000e+00 0.000000e+00 0
0.000000e+00 0.000000e+00 0
0.000000e+00 0.000000e+00 0
0.000000e+00 0.000000e+00 0
0.000000e+00 0.000000e+00 0
0.000000e+00 0.000000e+00 0
1.414541e-17 0.000000e+00 0
0.000000e+00 0.000000e+00 0
0.000000e+00 0.000000e+00 0
0.000000e+00 0.000000e+00 0
0.000000e+00 0.000000e+00 0
0.000000e+00 0.000000e+00 0
0.000000e+00 0.000000e+00 0
0.000000e+00 0.000000e+00 0
1.470759e-17 0.000000e+00 0
0.000000e+00 0.000000e+00 0
0.000000e+00 0.000000e+00 0
0.000000e+00 0.000000e+00 0
0.000000e+00 0.000000e+00 0
0.000000e+00 0.000000e+00 0
0.000000e+00 0.000000e+00 0
0.000000e+00 0.000000e+00 0
-4.134283e-17 0.000000e+00 0
0.000000e+00 0.000000e+00 0
0.000000e+00 0.000000e+00 0
0.000000e+00 0.000000e+00 0
0.000000e+00 0.000000e+00 0
0.000000e+00 0.000000e+00 0
0.000000e+00 0.000000e+00 0
0.000000e+00 0.000000e+00 0
-2.599865e-18 0.000000e+00 0
0.000000e+00 0.000000e+00 0
0.000000e+00 0.000000e+00 0
0.000000e+00 0.000000e+00 0
0.000000e+00 0.000000e+00 0
0.000000e+00 0.000000e+00 0
0.000000e+00 0.000000e+00 0
0.000000e+00 0.000000e+00 0
0.000000e+00 0.000000e+00 0
0.000000e+00 0.000000e+00 0
0.000000e+00 0.000000e+00 0
0.000000e+00 0.000000e+00 0
0.000000e+00 0.000000e+00 0
0.000000e+00 0.000000e+00 0
0.000000e+00 0.000000e+00 0
0.000000e+00 0.000000e+00 0
0.000000e+00 0.000000e+00 0
0.000000e+00 0.000000e+00 0
0.000000e+00 0.000000e+00 0
0.000000e+00 0.000000e+00 0
0.000000e+00 0.000000e+00 0
0.000000e+00 0.000000e+00 0
0.000000e+00 0.000000e+00 0
0.000000e+00 0.000000e+00 0
0.000000e+00 0.000000e+00 0
0.000000e+00 0.000000e+00 0
0.000000e+00 0.000000e+00 0
0.000000e+00 0.000000e+00 0
0.000000e+00 0.000000e+00 0
0.000000e+00 0.000000e+00 0
0.000000e+00 0.000000e+00 0
0.000000e+00 0.000000e+00 0
0.000000e+00 0.000000e+00 0
0.000000e+00 0.000000e+00 0
0.000000e+00 0.000000e+00 0
0.000000e+00 0.000000e+00 0
0.000000e+00 0.000000e+00 0
0.000000e+00 0.000000e+00 0
0.000000e+00 0.000000e+00 0
0.000000e+00 0.000000e+00 0
0.000000e+00 0.000000e+00 0
0.000000e+00 0.000000e+00 0
0.000000e+00 0.000000e+00 0
0.000000e+00 0.000000e+00 0
0.000000e+00 0.000000e+00 0
0.000000e+00 0.000000e+00 0
0.000000e+00 0.000000e+00 0
0.000000e+00 0.000000e+00 0
0.000000e+00 0.000000e+00 0
0.000000e+00 0.000000e+00 0
0.000000e+00 0.000000e+00 0
0.000000e+00 0.000000e+00 0
0.000000e+00 0.000000e+00 0
0.000000e+00 0.000000e+00 0
0.000000e+00 0.000000e+00 0
0.000000e+00 0.000000e+00 0
0.000000e+00 0.000000e+00 0
0.000000e+00 0.000000e+00 0
0.000000e+00 0.000000e+00 0
0.000000e+00 0.000000e+00 0
0.000000e+00 0.000000e+00 0
0.000000e+00 0.000000e+00 0
0.000000e+00 0.000000e+00 0
0.000000e+00 0.000000e+00 0
0.000000e+00 0.000000e+00 0
0.000000e+00 0.000000e+00 0
0.000000e+00 0.000000e+00 0
0.000000e+00 0.000000e+00 0
0.000000e+00 0.000000e+00 0
0.000000e+00 0.000000e+00 0
0.000000e+00 0.000000e+00 0
0.000000e+00 0.000000e+00 0
0.000000e+00 0.000000e+00 0
0.000000e+00 0.000000e+00 0
0.000000e+00 0.000000e+00 0
0.000000e+00 0.000000e+00 0
0.000000e+00 0.000000e+00 0
0.000000e+00 0.000000e+00 0
0.000000e+00 0.000000e+00 0
0.000000e+00 0.000000e+00 0
0.000000e+00 0.000000e+00 0
0.000000e+00 0.000000e+00 0
0.000000e+00 0.000000e+00 0
0.000000e+00 0.000000e+00 0
0.000000e+00 0.000000e+00 0
0.000000e+00 0.000000e+00 0
0.000000e+00 0.000000e+00 0
0.000000e+00 0.000000e+00 0
0.000000e+00 0.000000e+00 0
0.000000e+00 0.000000e+00 0
0.000000e+00 0.000000e+00 0
0.000000e+00 0.000000e+00 0
0.000000e+00 0.000000e+00 0
0.000000e+00 0.000000e+00 0
0.000000e+00 0.000000e+00 0
0.000000e+00 0.000000e+00 0
0.000000e+00 0.000000e+00 0
0.000000e+00 0.000000e+00 0
-6.617037e-02 -1.065453e-01 0
-1.601796e-02 2.239577e-03 0
-2.185221e-02 1.236140e-03 0
-1.763667e-02 7.224484e-04 0
-1.673555e-02 7.533122e-04 0
-1.495027e-02 7.698956e-04 0
-1.357638e-02 7.867359e-04 0
-1.225603e-02 7.881096e-04 0
-1.133695e-02 7.847876e-04 0
-1.153934e-02 7.723616e-04 0
-1.510610e-02 6.842176e-04 0
-2.483245e-02 3.634949e-04 0
-3.708376e-02 -1.017623e-04 0
-4.563446e-02 -3.513106e-04 0
-5.235852e-02 -2.872924e-04 0
1.243052e+00 1.845482e-03 0
0.000000e+00 0.000000e+00 0
4.007828e-03 -3.646850e-03 0
6.946565e-03 -1.237617e-03 0
5.427269e-03 2.627905e-03 0
-2.801436e-03 5.513494e-03 0
-2.322494e-02 1.383160e-02 0
-5.584240e-02 3.386300e-02 0
-1.017067e-01 5.387409e-02 0
-1.580271e-01 6.498581e-02 0
-2.214429e-01 7.164789e-02 0
-2.896135e-01 7.593970e-02 0
-3.606665e-01 7.835438e-02 0
-4.330291e-01 7.920527e-02 0
-5.053663e-01 7.874181e-02 0
-5.765532e-01 7.718445e-02 0
-6.456617e-01 7.473844e-02 0
-7.119527e-01 7.159807e-02 0
-7.748666e-01 6.794643e-02 0
-8.340133e-01 6.395335e-02 0
-8.891577e-01 5.977290e-02 0
-9.402036e-01 5.554103e-02 0
-9.871748e-01 5.137381e-02 0
-1.030195e+00 4.736639e-02 0
-1.069467e+00 4.359285e-02 0
-1.105254e+00 4.010670e-02 0
-1.137857e+00 3.694235e-02 0
-1.167601e+00 3.411700e-02 0
-1.194817e+00 3.163327e-02 0
-1.219832e+00 2.948210e-02 0
-1.242959e+00 2.764581e-02 0
-1.264487e+00 2.610098e-02 0
-1.284683e+00 2.482079e-02 0
-1.303784e+00 2.377671e-02 0
-1.322000e+00 2.293972e-02 0
-1.339513e+00 2.228061e-02 0
-1.356477e+00 2.176996e-02 0
-1.373017e+00 2.137760e-02 0
-1.389230e+00 2.107199e-02 0
-1.405181e+00 2.081963e-02 0
-1.420903e+00 2.058447e-02 0
-1.436396e+00 2.032731e-02 0
-1.451621e+00 2.000497e-02 0
-1.466500e+00 1.956916e-02 0
-1.480908e+00 1.896522e-02 0
-1.494663e+00 1.813095e-02 0
-1.507520e+00 1.699515e-02 0
-1.519163e+00 1.547507e-02 0
-1.529189e+00 1.347163e-02 0
-1.537096e+00 1.086236e-02 0
-1.542255e+00 7.492892e-03 0
-1.543885e+00 3.161160e-03 0
-1.541013e+00 -2.288985e-03 0
-1.532876e+00 -8.755023e-03 0
-1.518440e+00 -1.614187e-02 0
-1.496726e+00 -2.443051e-02 0
-1.466913e+00 -3.342845e-02 0
-1.428443e+00 -4.284947e-02 0
-1.381089e+00 -5.237326e-02 0
-1.324939e+00 -6.170567e-02 0
-1.260314e+00 -7.059020e-02 0
-1.187736e+00 -7.877548e-02 0
-1.108016e+00 -8.604862e-02 0
-1.022081e+00 -9.225870e-02 0
-9.310842e-01 -9.739007e-02 0
-8.360064e-01 -1.015866e-01 0
-7.373791e-01 -1.047502e-01 0
-6.365189e-01 -1.067763e-01 0
-5.344310e-01 -1.078722e-01 0
-4.321378e-01 -1.084787e-01 0
-3.292757e-01 -1.081969e-01 0
-2.270876e-01 -1.065011e-01 0
-1.252875e-01 -1.058799e-01 0
-2.729195e-02 -1.057073e-01 0
6.699918e-02 -1.045130e-01 0
1.576903e-01 -9.962846e-02 0
2.439820e-01 -9.169299e-02 0
3.257389e-01 -8.540792e-02 0
4.031081e-01 -8.026446e-02 0
4.762493e-01 -7.562052e-02 0
5.452884e-01 -7.121369e-02 0
6.103300e-01 -6.695186e-02 0
6.714719e-01 -6.280705e-02 0
7.288139e-01 -5.877465e-02 0
7.824611e-01 -5.485805e-02 0
8.325254e-01 -5.106279e-02 0
8.791245e-01 -4.739425e-02 0
9.223808e-01 -4.385684e-02 0
9.624204e-01 -4.045368e-02 0
9.993718e-01 -3.718670e-02 0
1.033364e+00 -3.405671e-02 0
1.064528e+00 -3.106359e-02 0
1.092992e+00 -2.820644e-02 0
1.118885e+00 -2.548375e-02 0
1.142333e+00 -2.289352e-02 0
1.163460e+00 -2.043339e-02 0
1.182388e+00 -1.810072e-02 0
1.199236e+00 -1.589268e-02 0
1.214123e+00 -1.380632e-02 0
1.227160e+00 -1.183861e-02 0
1.238459e+00 -9.986471e-03 0
1.248128e+00 -8.246911e-03 0
1.256272e+00 -6.617087e-03 0
1.262992e+00 -5.094611e-03 0
1.268389e+00 -3.678256e-03 0
1.272559e+00 -2.369816e-03 0
1.275596e+00 -1.180407e-03 0
1.277593e+00 -1.486362e-04 0
1.278627e+00 7.456205e-04 0
1.278786e+00 1.572339e-03 0
1.278164e+00 2.338920e-03 0
1.276841e+00 3.031203e-03 0
1.274891e+00 3.649761e-03 0
1.272380e+00 4.198787e-03 0
1.269372e+00 4.683136e-03 0
1.265923e+00 5.107492e-03 0
1.262089e+00 5.476114e-03 0
1.257918e+00 5.792807e-03 0
1.253459e+00 6.061023e-03 0
1.248754e+00 6.284004e-03 0
1.243845e+00 6.464886e-03 0
1.238770e+00 6.606747e-03 0
1.233563e+00 6.712595e-03 0
1.228257e+00 6.785357e-03 0
1.222882e+00 6.827854e-03 0
1.217464e+00 6.842807e-03 0
1.212028e+00 6.832840e-03 0
1.206597e+00 6.800503e-03 0
1.201189e+00 6.748285e-03 0
1.195823e+00 6.678624e-03 0
1.190513e+00 6.593922e-03 0
1.185273e+00 6.496546e-03 0
1.180113e+00 6.388827e-03 0
1.175043e+00 6.273056e-03 0
1.170067e+00 6.151440e-03 0
1.165192e+00 6.025988e-03 0
1.160420e+00 5.898159e-03 0
1.155750e+00 5.767844e-03 0
1.151184e+00 5.630148e-03 0
1.146723e+00 5.465621e-03 0
1.142374e+00 5.184984e-03 0
1.138162e+00 4.770095e-03 0
1.138162e+00 4.543072e-03 0
0.000000e+00 0.000000e+00 0
-5.080714e-02 -5.823551e-02 0
-3.313477e-02 -1.344402e-03 0
-3.501518e-02 -9.564369e-04 0
-2.930580e-02 -3.352453e-04 0
-2.722834e-02 2.333584e-06 0
-2.401792e-02 2.988686e-04 0
-2.156121e-02 5.134950e-04 0
-1.930611e-02 6.692842e-04 0
-1.789894e-02 7.714092e-04 0
-1.834440e-02 7.918439e-04 0
-2.284863e-02 6.001367e-04 0
-3.199416e-02 7.692350e-05 0
-4.107877e-02 -5.117700e-04 0
-4.729195e-02 -7.488991e-04 0
-5.270075e-02 -5.850753e-04 0
1.246712e+00 4.008755e-03 0
0.000000e+00 0.000000e+00 0
3.250156e-03 -7.316104e-03 0
3.798781e-03 -1.494569e-03 0
-4.487020e-03 1.026847e-02 0
-2.474778e-02 3.018090e-02 0
-5.855052e-02 5.587039e-02 0
-1.009605e-01 8.266799e-02 0
-1.459353e-01 1.076352e-01 0
-1.966181e-01 1.261227e-01 0
-2.526693e-01 1.386049e-01 0
-3.124663e-01 1.466494e-01 0
-3.744651e-01 1.510650e-01 0
-4.372825e-01 1.524178e-01 0
-4.997116e-01 1.511793e-01 0
-5.607271e-01 1.477784e-01 0
-6.194857e-01 1.426214e-01 0
-6.753242e-01 1.360964e-01 0
-7.277530e-01 1.285711e-01 0
-7.764463e-01 1.203872e-01 0
-8.212279e-01 1.118544e-01 0
-8.620531e-01 1.032453e-01 0
-8.989898e-01 9.479160e-02 0
-9.321965e-01 8.668216e-02 0
-9.619019e-01 7.906274e-02 0
-9.883845e-01 7.203758e-02 0
-1.011953e+00 6.567237e-02 0
-1.032933e+00 5.999845e-02 0
-1.051646e+00 5.501799e-02 0
-1.068408e+00 5.071006e-02 0
-1.083513e+00 4.703689e-02 0
-1.097232e+00 4.394956e-02 0
-1.109812e+00 4.139261e-02 0
-1.121470e+00 3.930755e-02 0
-1.132396e+00 3.763516e-02 0
-1.142751e+00 3.631630e-02 0
-1.152673e+00 3.529159e-02 0
-1.162270e+00 3.450041e-02 0
-1.171628e+00 3.387969e-02 0
-1.180803e+00 3.336312e-02 0
-1.189827e+00 3.288053e-02 0
-1.198704e+00 3.235701e-02 0
-1.207410e+00 3.171071e-02 0
-1.215887e+00 3.084912e-02 0
-1.224031e+00 2.966482e-02 0
-1.231680e+00 2.803247e-02 0
-1.238600e+00 2.580769e-02 0
-1.244480e+00 2.282488e-02 0
-1.248937e+00 1.888934e-02 0
-1.251514e+00 1.376272e-02 0
-1.251644e+00 7.152165e-03 0
-1.248653e+00 -1.307228e-03 0
-1.241853e+00 -1.159593e-02 0
-1.230281e+00 -2.377639e-02 0
-1.212679e+00 -3.807789e-02 0
-1.187938e+00 -5.427463e-02 0
-1.155174e+00 -7.192412e-02 0
-1.113814e+00 -9.040153e-02 0
-1.063741e+00 -1.090236e-01 0
-1.005220e+00 -1.272159e-01 0
-9.386436e-01 -1.445210e-01 0
-8.644724e-01 -1.604199e-01 0
-7.836525e-01 -1.744890e-01 0
-6.969419e-01 -1.863681e-01 0
-6.057614e-01 -1.959985e-01 0
-5.113177e-01 -2.040358e-01 0
-4.136579e-01 -2.101265e-01 0
-3.141945e-01 -2.137718e-01 0
-2.133190e-01 -2.152812e-01 0
-1.121301e-01 -2.160966e-01 0
-1.337651e-02 -2.159860e-01 0
8.339388e-02 -2.148673e-01 0
1.782728e-01 -2.104512e-01 0
2.684808e-01 -2.025418e-01 0
3.545282e-01 -1.948477e-01 0
4.357750e-01 -1.864217e-01 0
5.154705e-01 -1.770110e-01 0
5.925594e-01 -1.676126e-01 0
6.662261e-01 -1.585374e-01 0
7.361741e-01 -1.497631e-01 0
8.023327e-01 -1.412316e-01 0
8.647222e-01 -1.329132e-01 0
9.234029e-01 -1.248029e-01 0
9.784571e-01 -1.169085e-01 0
1.029981e+00 -1.092427e-01 0
1.078081e+00 -1.018186e-01 0
1.122870e+00 -9.464756e-02 0
1.164468e+00 -8.773832e-02 0
1.202997e+00 -8.109710e-02 0
1.238582e+00 -7.472760e-02 0
1.271350e+00 -6.863134e-02 0
1.301426e+00 -6.280801e-02 0
1.328937e+00 -5.725581e-02 0
1.354007e+00 -5.197170e-02 0
1.376760e+00 -4.695173e-02 0
1.397316e+00 -4.219122e-02 0
1.415794e+00 -3.768496e-02 0
1.432310e+00 -3.342733e-02 0
1.446979e+00 -2.941243e-02 0
1.459911e+00 -2.563419e-02 0
1.471214e+00 -2.208639e-02 0
1.480995e+00 -1.876281e-02 0
1.489354e+00 -1.565728e-02 0
1.496391e+00 -1.276384e-02 0
1.502202e+00 -1.007695e-02 0
1.506877e+00 -7.591581e-03 0
1.510502e+00 -5.301938e-03 0
1.513144e+00 -3.191870e-03 0
1.514837e+00 -1.257597e-03 0
1.515657e+00 4.869583e-04 0
1.515722e+00 2.048957e-03 0
1.515118e+00 3.448344e-03 0
1.513918e+00 4.699224e-03 0
1.512185e+00 5.813364e-03 0
1.509978e+00 6.801036e-03 0
1.507352e+00 7.671243e-03 0
1.504359e+00 8.431931e-03 0
1.501045e+00 9.090274e-03 0
1.497454e+00 9.652962e-03 0
1.493629e+00 1.012642e-02 0
1.489607e+00 1.051690e-02 0
1.485424e+00 1.083052e-02 0
1.481112e+00 1.107325e-02 0
1.476703e+00 1.125082e-02 0
1.472222e+00 1.136877e-02 0
1.467697e+00 1.143245e-02 0
1.463148e+00 1.144699e-02 0
1.458596e+00 1.141741e-02 0
1.454060e+00 1.134860e-02 0
1.449555e+00 1.124536e-02 0
1.445095e+00 1.111239e-02 0
1.440692e+00 1.095436e-02 0
1.436355e+00 1.077586e-02 0
1.432092e+00 1.058144e-02 0
1.427909e+00 1.037556e-02 0
1.423808e+00 1.016245e-02 0
1.419792e+00 9.945842e-03 0
1.415858e+00 9.728091e-03 0
1.412001e+00 9.508321e-03 0
1.408207e+00 9.279400e-03 0
1.404440e+00 9.017905e-03 0
1.400583e+00 8.927997e-03 0
1.400583e+00 8.981448e-03 0
0.000000e+00 0.000000e+00 0
-5.779706e-02 -7.272483e-02 0
-3.959296e-02 -6.330957e-03 0
-4.126062e-02 -6.054606e-03 0
-3.569515e-02 -4.656058e-03 0
-3.330650e-02 -4.030368e-03 0
-2.973272e-02 -3.274045e-03 0
-2.689752e-02 -2.652380e-03 0
-2.427868e-02 -2.071736e-03 0
-2.263017e-02 -1.593422e-03 0
-2.287935e-02 -1.246164e-03 0
-2.663093e-02 -1.094908e-03 0
-3.386294e-02 -1.129875e-03 0
-4.134672e-02 -1.188876e-03 0
-4.730156e-02 -1.087489e-03 0
-5.281129e-02 -7.612326e-04 0
1.249217e+00 5.096322e-03 0
0.000000e+00 0.000000e+00 0
-6.714162e-04 -7.647623e-03 0
-8.387342e-03 6.912450e-03 0
-2.533093e-02 3.269719e-02 0
-5.103980e-02 6.246062e-02 0
-8.134446e-02 9.410924e-02 0
-1.166127e-01 1.259085e-01 0
-1.546677e-01 1.546337e-01 0
-1.958772e-01 1.774125e-01 0
-2.403247e-01 1.936749e-01 0
-2.871507e-01 2.042315e-01 0
-3.352881e-01 2.098277e-01 0
-3.836829e-01 2.111318e-01 0
-4.313786e-01 2.087704e-01 0
-4.775526e-01 2.033468e-01 0
-5.215309e-01 1.954476e-01 0
-5.627931e-01 1.856398e-01 0
-6.009700e-01 1.744620e-01 0
-6.358347e-01 1.624138e-01 0
-6.672891e-01 1.499457e-01 0
-6.953465e-01 1.374505e-01 0
-7.201140e-01 1.252584e-01 0
-7.417723e-01 1.136341e-01 0
-7.605564e-01 1.027778e-01 0
-7.767372e-01 9.282785e-02 0
-7.906050e-01 8.386660e-02 0
-8.024552e-01 7.592700e-02 0
-8.125761e-01 6.900092e-02 0
-8.212393e-01 6.304847e-02 0
-8.286943e-01 5.800787e-02 0
-8.351678e-01 5.380346e-02 0
-8.408620e-01 5.035146e-02 0
-8.459529e-01 4.756472e-02 0
-8.505914e-01 4.535600e-02 0
-8.549037e-01 4.363943e-02 0
-8.589938e-01 4.233024e-02 0
-8.629453e-01 4.134355e-02 0
-8.668237e-01 4.059291e-02 0
-8.706777e-01 3.998937e-02 0
-8.745390e-01 3.944067e-02 0
-8.784220e-01 3.884896e-02 0
-8.823200e-01 3.810483e-02 0
-8.861969e-01 3.707687e-02 0
-8.899697e-01 3.560076e-02 0
-8.934858e-01 3.347644e-02 0
-8.965140e-01 3.047746e-02 0
-8.987661e-01 2.636425e-02 0
-8.999421e-01 2.088076e-02 0
-8.997512e-01 1.371408e-02 0
-8.977553e-01 4.480051e-03 0
-8.931684e-01 -7.152158e-03 0
-8.856124e-01 -2.164066e-02 0
-8.733624e-01 -3.948516e-02 0
-8.549554e-01 -6.074329e-02 0
-8.291560e-01 -8.500243e-02 0
-7.950443e-01 -1.115057e-01 0
-7.519897e-01 -1.391583e-01 0
-7.001067e-01 -1.667588e-01 0
-6.401038e-01 -1.934750e-01 0
-5.726003e-01 -2.188439e-01 0
-4.981223e-01 -2.420326e-01 0
-4.178810e-01 -2.625139e-01 0
-3.322162e-01 -2.796372e-01 0
-2.423929e-01 -2.929141e-01 0
-1.489242e-01 -3.039355e-01 0
-5.508921e-02 -3.123865e-01 0
3.906074e-02 -3.177998e-01 0
1.331548e-01 -3.207133e-01 0
2.266430e-01 -3.190846e-01 0
3.174075e-01 -3.141487e-01 0
4.054863e-01 -3.083716e-01 0
4.895912e-01 -3.008381e-01 0
5.721515e-01 -2.913628e-01 0
6.522872e-01 -2.807295e-01 0
7.293039e-01 -2.691543e-01 0
8.035441e-01 -2.568391e-01 0
8.748491e-01 -2.442038e-01 0
9.429262e-01 -2.315386e-01 0
1.007581e+00 -2.189861e-01 0
1.068727e+00 -2.066176e-01 0
1.126355e+00 -1.944790e-01 0
1.180503e+00 -1.826077e-01 0
1.231234e+00 -1.710368e-01 0
1.278635e+00 -1.597948e-01 0
1.322801e+00 -1.489058e-01 0
1.363839e+00 -1.383886e-01 0
1.401860e+00 -1.282570e-01 0
1.436979e+00 -1.185207e-01 0
1.469314e+00 -1.091851e-01 0
1.498983e+00 -1.002524e-01 0
1.526105e+00 -9.172233e-02 0
1.550798e+00 -8.359202e-02 0
1.573179e+00 -7.585708e-02 0
1.593365e+00 -6.851173e-02 0
1.611468e+00 -6.154912e-02 0
1.627601e+00 -5.496165e-02 0
1.641872e+00 -4.874117e-02 0
1.654389e+00 -4.287909e-02 0
1.665257e+00 -3.736653e-02 0
1.674577e+00 -3.219443e-02 0
1.682449e+00 -2.735354e-02 0
1.688970e+00 -2.283453e-02 0
1.694233e+00 -1.862793e-02 0
1.698329e+00 -1.472404e-02 0
1.701344e+00 -1.111253e-02 0
1.703361e+00 -7.781413e-03 0
1.704456e+00 -4.715183e-03 0
1.704706e+00 -1.900865e-03 0
1.704206e+00 6.404237e-04 0
1.703031e+00 2.906004e-03 0
1.701249e+00 4.931538e-03 0
1.698921e+00 6.739864e-03 0
1.696108e+00 8.348679e-03 0
1.692862e+00 9.773047e-03 0
1.689237e+00 1.102624e-02 0
1.685280e+00 1.212015e-02 0
1.681038e+00 1.306555e-02 0
1.676553e+00 1.387239e-02 0
1.671865e+00 1.455011e-02 0
1.667010e+00 1.510783e-02 0
1.662021e+00 1.555449e-02 0
1.656929e+00 1.589881e-02 0
1.651763e+00 1.614931e-02 0
1.646547e+00 1.631421e-02 0
1.641304e+00 1.640144e-02 0
1.636056e+00 1.641859e-02 0
1.630820e+00 1.637298e-02 0
1.625614e+00 1.627171e-02 0
1.620452e+00 1.612173e-02 0
1.615345e+00 1.592983e-02 0
1.610305e+00 1.570275e-02 0
1.605340e+00 1.544715e-02 0
1.600456e+00 1.516966e-02 0
1.595657e+00 1.487689e-02 0
1.590946e+00 1.457547e-02 0
1.586324e+00 1.427214e-02 0
1.581786e+00 1.397394e-02 0
1.577325e+00 1.368905e-02 0
1.572923e+00 1.343081e-02 0
1.568545e+00 1.321646e-02 0
1.564126e+00 1.336276e-02 0
1.564126e+00 1.360315e-02 0
0.000000e+00 0.000000e+00 0
-4.852380e-02 -6.338334e-02 0
-3.591781e-02 -9.973272e-03 0
-3.741050e-02 -9.286027e-03 0
-3.304588e-02 -7.747301e-03 0
-3.139817e-02 -7.300057e-03 0
-2.859480e-02 -6.598886e-03 0
-2.635747e-02 -6.024857e-03 0
-2.424162e-02 -5.427366e-03 0
-2.297619e-02 -4.890615e-03 0
-2.346211e-02 -4.376954e-03 0
-2.714779e-02 -3.763135e-03 0
-3.399192e-02 -2.892586e-03 0
-4.124314e-02 -1.937304e-03 0
-4.730227e-02 -1.206953e-03 0
-5.298988e-02 -6.467102e-04 0
1.253393e+00 3.327445e-03 0
0.000000e+00 0.000000e+00 0
-7.796605e-03 1.519167e-03 0
-2.318801e-02 2.448036e-02 0
-4.143111e-02 5.519597e-02 0
-6.236991e-02 8.918206e-02 0
-8.635722e-02 1.249408e-01 0
-1.128510e-01 1.599020e-01 0
-1.411193e-01 1.911273e-01 0
-1.710450e-01 2.163484e-01 0
-2.026511e-01 2.347465e-01 0
-2.354845e-01 2.466778e-01 0
-2.688875e-01 2.527458e-01 0
-3.021564e-01 2.536333e-01 0
-3.346289e-01 2.500556e-01 0
-3.657251e-01 2.427391e-01 0
-3.949656e-01 2.324083e-01 0
-4.219801e-01 2.197724e-01 0
-4.465135e-01 2.055086e-01 0
-4.684157e-01 1.902435e-01 0
-4.876316e-01 1.745403e-01 0
-5.041892e-01 1.588878e-01 0
-5.181866e-01 1.436937e-01 0
-5.297774e-01 1.292817e-01 0
-5.391570e-01 1.158926e-01 0
-5.465491e-01 1.036890e-01 0
-5.521927e-01 9.276229e-02 0
-5.563304e-01 8.314152e-02 0
-5.591981e-01 7.480409e-02 0
-5.610136e-01 6.768815e-02 0
-5.619691e-01 6.170852e-02 0
-5.622442e-01 5.676639e-02 0
-5.619992e-01 5.275313e-02 0
-5.613724e-01 4.955614e-02 0
-5.604805e-01 4.706358e-02 0
-5.594192e-01 4.516704e-02 0
-5.582658e-01 4.376225e-02 0
-5.570825e-01 4.274817e-02 0
-5.559205e-01 4.202471e-02 0
-5.548221e-01 4.149010e-02 0