<?xml version="1.0"?>
<VTKFile type="StructuredGrid">
<StructuredGrid WholeExtent="0 158 0 30 0 0 ">
<Piece Extent="0 158 0 30 0 0 ">
<Points>
<DataArray type="Float64" format="ascii" NumberOfComponents="3">
0.000000e+00 0.000000e+00 0.000000e+00
3.164557e-02 0.000000e+00 0.000000e+00
6.329114e-02 0.000000e+00 0.000000e+00
9.493671e-02 0.000000e+00 0.000000e+00
1.265823e-01 0.000000e+00 0.000000e+00
1.582278e-01 0.000000e+00 0.000000e+00
1.898734e-01 0.000000e+00 0.000000e+00
2.215190e-01 0.000000e+00 0.000000e+00
2.531646e-01 0.000000e+00 0.000000e+00
2.848101e-01 0.000000e+00 0.000000e+00
3.164557e-01 0.000000e+00 0.000000e+00
3.481013e-01 0.000000e+00 0.000000e+00
3.797468e-01 0.000000e+00 0.000000e+00
4.113924e-01 0.000000e+00 0.000000e+00
4.430380e-01 0.000000e+00 0.000000e+00
4.746835e-01 0.000000e+00 0.000000e+00
5.063291e-01 0.000000e+00 0.000000e+00
5.379747e-01 0.000000e+00 0.000000e+00
5.696203e-01 0.000000e+00 0.000000e+00
6.012658e-01 0.000000e+00 0.000000e+00
6.329114e-01 0.000000e+00 0.000000e+00
6.645570e-01 0.000000e+00 0.000000e+00
6.962025e-01 0.000000e+00 0.000000e+00
7.278481e-01 0.000000e+00 0.000000e+00
7.594937e-01 0.000000e+00 0.000000e+00
7.911392e-01 0.000000e+00 0.000000e+00
8.227848e-01 0.000000e+00 0.000000e+00
8.544304e-01 0.000000e+00 0.000000e+00
8.860759e-01 0.000000e+00 0.000000e+00
9.177215e-01 0.000000e+00 0.000000e+00
9.493671e-01 0.000000e+00 0.000000e+00
9.810127e-01 0.000000e+00 0.000000e+00
1.012658e+00 0.000000e+00 0.000000e+00
1.044304e+00 0.000000e+00 0.000000e+00
1.075949e+00 0.000000e+00 0.000000e+00
1.107595e+00 0.000000e+00 0.000000e+00
1.139241e+00 0.000000e+00 0.000000e+00
1.170886e+00 0.000000e+00 0.000000e+00
1.202532e+00 0.000000e+00 0.000000e+00
1.234177e+00 0.000000e+00 0.000000e+00
1.265823e+00 0.000000e+00 0.000000e+00
1.297468e+00 0.000000e+00 0.000000e+00
1.329114e+00 0.000000e+00 0.000000e+00
1.360759e+00 0.000000e+00 0.000000e+00
1.392405e+00 0.000000e+00 0.000000e+00
1.424051e+00 0.000000e+00 0.000000e+00
1.455696e+00 0.000000e+00 0.000000e+00
1.487342e+00 0.000000e+00 0.000000e+00
1.518987e+00 0.000000e+00 0.000000e+00
1.550633e+00 0.000000e+00 0.000000e+00
1.582278e+00 0.000000e+00 0.000000e+00
1.613924e+00 0.000000e+00 0.000000e+00
1.645570e+00 0.000000e+00 0.000000e+00
1.677215e+00 0.000000e+00 0.000000e+00
1.708861e+00 0.000000e+00 0.000000e+00
1.740506e+00 0.000000e+00 0.000000e+00
1.772152e+00 0.000000e+00 0.000000e+00
1.803797e+00 0.000000e+00 0.000000e+00
1.835443e+00 0.000000e+00 0.000000e+00
1.867089e+00 0.000000e+00 0.000000e+00
1.898734e+00 0.000000e+00 0.000000e+00
1.930380e+00 0.000000e+00 0.000000e+00
1.962025e+00 0.000000e+00 0.000000e+00
1.993671e+00 0.000000e+00 0.000000e+00
2.025316e+00 0.000000e+00 0.000000e+00
2.056962e+00 0.000000e+00 0.000000e+00
2.088608e+00 0.000000e+00 0.000000e+00
2.120253e+00 0.000000e+00 0.000000e+00
2.151899e+00 0.000000e+00 0.000000e+00
2.183544e+00 0.000000e+00 0.000000e+00
2.215190e+00 0.000000e+00 0.000000e+00
2.246835e+00 0.000000e+00 0.000000e+00
2.278481e+00 0.000000e+00 0.000000e+00
2.310127e+00 0.000000e+00 0.000000e+00
2.341772e+00 0.000000e+00 0.000000e+00
2.373418e+00 0.000000e+00 0.000000e+00
2.405063e+00 0.000000e+00 0.000000e+00
2.436709e+00 0.000000e+00 0.000000e+00
2.468354e+00 0.000000e+00 0.000000e+00
2.500000e+00 0.000000e+00 0.000000e+00
2.531646e+00 0.000000e+00 0.000000e+00
2.563291e+00 0.000000e+00 0.000000e+00
2.594937e+00 0.000000e+00 0.000000e+00
2.626582e+00 0.000000e+00 0.000000e+00
2.658228e+00 0.000000e+00 0.000000e+00
2.689873e+00 0.000000e+00 0.000000e+00
2.721519e+00 0.000000e+00 0.000000e+00
2.753165e+00 0.000000e+00 0.000000e+00
2.784810e+00 0.000000e+00 0.000000e+00
2.816456e+00 0.000000e+00 0.000000e+00
2.848101e+00 0.000000e+00 0.000000e+00
2.879747e+00 0.000000e+00 0.000000e+00
2.911392e+00 0.000000e+00 0.000000e+00
2.943038e+00 0.000000e+00 0.000000e+00
2.974684e+00 0.000000e+00 0.000000e+00
3.006329e+00 0.000000e+00 0.000000e+00
3.037975e+00 0.000000e+00 0.000000e+00
3.069620e+00 0.000000e+00 0.000000e+00
3.101266e+00 0.000000e+00 0.000000e+00
3.132911e+00 0.000000e+00 0.000000e+00
3.164557e+00 0.000000e+00 0.000000e+00
3.196203e+00 0.000000e+00 0.000000e+00
3.227848e+00 0.000000e+00 0.000000e+00
3.259494e+00 0.000000e+00 0.000000e+00
3.291139e+00 0.000000e+00 0.000000e+00
3.322785e+00 0.000000e+00 0.000000e+00
3.354430e+00 0.000000e+00 0.000000e+00
3.386076e+00 0.000000e+00 0.000000e+00
3.417722e+00 0.000000e+00 0.000000e+00
3.449367e+00 0.000000e+00 0.000000e+00
3.481013e+00 0.000000e+00 0.000000e+00
3.512658e+00 0.000000e+00 0.000000e+00
3.544304e+00 0.000000e+00 0.000000e+00
3.575949e+00 0.000000e+00 0.000000e+00
3.607595e+00 0.000000e+00 0.000000e+00
3.639241e+00 0.000000e+00 0.000000e+00
3.670886e+00 0.000000e+00 0.000000e+00
3.702532e+00 0.000000e+00 0.000000e+00
3.734177e+00 0.000000e+00 0.000000e+00
3.765823e+00 0.000000e+00 0.000000e+00
3.797468e+00 0.000000e+00 0.000000e+00
3.829114e+00 0.000000e+00 0.000000e+00
3.860759e+00 0.000000e+00 0.000000e+00
3.892405e+00 0.000000e+00 0.000000e+00
3.924051e+00 0.000000e+00 0.000000e+00
3.955696e+00 0.000000e+00 0.000000e+00
3.987342e+00 0.000000e+00 0.000000e+00
4.018987e+00 0.000000e+00 0.000000e+00
4.050633e+00 0.000000e+00 0.000000e+00
4.082278e+00 0.000000e+00 0.000000e+00
4.113924e+00 0.000000e+00 0.000000e+00
4.145570e+00 0.000000e+00 0.000000e+00
4.177215e+00 0.000000e+00 0.000000e+00
4.208861e+00 0.000000e+00 0.000000e+00
4.240506e+00 0.000000e+00 0.000000e+00
4.272152e+00 0.000000e+00 0.000000e+00
4.303797e+00 0.000000e+00 0.000000e+00
4.335443e+00 0.000000e+00 0.000000e+00
4.367089e+00 0.000000e+00 0.000000e+00
4.398734e+00 0.000000e+00 0.000000e+00
4.430380e+00 0.000000e+00 0.000000e+00
4.462025e+00 0.000000e+00 0.000000e+00
4.493671e+00 0.000000e+00 0.000000e+00
4.525316e+00 0.000000e+00 0.000000e+00
4.556962e+00 0.000000e+00 0.000000e+00
4.588608e+00 0.000000e+00 0.000000e+00
4.620253e+00 0.000000e+00 0.000000e+00
4.651899e+00 0.000000e+00 0.000000e+00
4.683544e+00 0.000000e+00 0.000000e+00
4.715190e+00 0.000000e+00 0.000000e+00
4.746835e+00 0.000000e+00 0.000000e+00
4.778481e+00 0.000000e+00 0.000000e+00
4.810127e+00 0.000000e+00 0.000000e+00
4.841772e+00 0.000000e+00 0.000000e+00
4.873418e+00 0.000000e+00 0.000000e+00
4.905063e+00 0.000000e+00 0.000000e+00
4.936709e+00 0.000000e+00 0.000000e+00
4.968354e+00 0.000000e+00 0.000000e+00
5.000000e+00 0.000000e+00 0.000000e+00
0.000000e+00 3.333333e-02 0.000000e+00
3.164557e-02 3.333333e-02 0.000000e+00
6.329114e-02 3.333333e-02 0.000000e+00
9.493671e-02 3.333333e-02 0.000000e+00
1.265823e-01 3.333333e-02 0.000000e+00
1.582278e-01 3.333333e-02 0.000000e+00
1.898734e-01 3.333333e-02 0.000000e+00
2.215190e-01 3.333333e-02 0.000000e+00
2.531646e-01 3.333333e-02 0.000000e+00
2.848101e-01 3.333333e-02 0.000000e+00
3.164557e-01 3.333333e-02 0.000000e+00
3.481013e-01 3.333333e-02 0.000000e+00
3.797468e-01 3.333333e-02 0.000000e+00
4.113924e-01 3.333333e-02 0.000000e+00
4.430380e-01 3.333333e-02 0.000000e+00
4.746835e-01 3.333333e-02 0.000000e+00
5.063291e-01 3.333333e-02 0.000000e+00
5.379747e-01 3.333333e-02 0.000000e+00
5.696203e-01 3.333333e-02 0.000000e+00
6.012658e-01 3.333333e-02 0.000000e+00
6.329114e-01 3.333333e-02 0.000000e+00
6.645570e-01 3.333333e-02 0.000000e+00
6.962025e-01 3.333333e-02 0.000000e+00
7.278481e-01 3.333333e-02 0.000000e+00
7.594937e-01 3.333333e-02 0.000000e+00
7.911392e-01 3.333333e-02 0.000000e+00
8.227848e-01 3.333333e-02 0.000000e+00
8.544304e-01 3.333333e-02 0.000000e+00
8.860759e-01 3.333333e-02 0.000000e+00
9.177215e-01 3.333333e-02 0.000000e+00
9.493671e-01 3.333333e-02 0.000000e+00
9.810127e-01 3.333333e-02 0.000000e+00
1.012658e+00 3.333333e-02 0.000000e+00
1.044304e+00 3.333333e-02 0.000000e+00
1.075949e+00 3.333333e-02 0.000000e+00
1.107595e+00 3.333333e-02 0.000000e+00
1.139241e+00 3.333333e-02 0.000000e+00
1.170886e+00 3.333333e-02 0.000000e+00
1.202532e+00 3.333333e-02 0.000000e+00
1.234177e+00 3.333333e-02 0.000000e+00
1.265823e+00 3.333333e-02 0.000000e+00
1.297468e+00 3.333333e-02 0.000000e+00
1.329114e+00 3.333333e-02 0.000000e+00
1.360759e+00 3.333333e-02 0.000000e+00
1.392405e+00 3.333333e-02 0.000000e+00
1.424051e+00 3.333333e-02 0.000000e+00
1.455696e+00 3.333333e-02 0.000000e+00
1.487342e+00 3.333333e-02 0.000000e+00
1.518987e+00 3.333333e-02 0.000000e+00
1.550633e+00 3.333333e-02 0.000000e+00
1.582278e+00 3.333333e-02 0.000000e+00
1.613924e+00 3.333333e-02 0.000000e+00
1.645570e+00 3.333333e-02 0.000000e+00
1.677215e+00 3.333333e-02 0.000000e+00
1.708861e+00 3.333333e-02 0.000000e+00
1.740506e+00 3.333333e-02 0.000000e+00
1.772152e+00 3.333333e-02 0.000000e+00
1.803797e+00 3.333333e-02 0.000000e+00
1.835443e+00 3.333333e-02 0.000000e+00
1.867089e+00 3.333333e-02 0.000000e+00
1.898734e+00 3.333333e-02 0.000000e+00
1.930380e+00 3.333333e-02 0.000000e+00
1.962025e+00 3.333333e-02 0.000000e+00
1.993671e+00 3.333333e-02 0.000000e+00
2.025316e+00 3.333333e-02 0.000000e+00
2.056962e+00 3.333333e-02 0.000000e+00
2.088608e+00 3.333333e-02 0.000000e+00
2.120253e+00 3.333333e-02 0.000000e+00
2.151899e+00 3.333333e-02 0.000000e+00
2.183544e+00 3.333333e-02 0.000000e+00
2.215190e+00 3.333333e-02 0.000000e+00
2.246835e+00 3.333333e-02 0.000000e+00
2.278481e+00 3.333333e-02 0.000000e+00
2.310127e+00 3.333333e-02 0.000000e+00
2.341772e+00 3.333333e-02 0.000000e+00
2.373418e+00 3.333333e-02 0.000000e+00
2.405063e+00 3.333333e-02 0.000000e+00
2.436709e+00 3.333333e-02 0.000000e+00
2.468354e+00 3.333333e-02 0.000000e+00
2.500000e+00 3.333333e-02 0.000000e+00
2.531646e+00 3.333333e-02 0.000000e+00
2.563291e+00 3.333333e-02 0.000000e+00
2.594937e+00 3.333333e-02 0.000000e+00
2.626582e+00 3.333333e-02 0.000000e+00
2.658228e+00 3.333333e-02 0.000000e+00
2.689873e+00 3.333333e-02 0.000000e+00
2.721519e+00 3.333333e-02 0.000000e+00
2.753165e+00 3.333333e-02 0.000000e+00
2.784810e+00 3.333333e-02 0.000000e+00
2.816456e+00 3.333333e-02 0.000000e+00
2.848101e+00 3.333333e-02 0.000000e+00
2.879747e+00 3.333333e-02 0.000000e+00
[...]
<PointData>
<DataArray Name="Velocity" type="Float64" format="ascii" NumberOfComponents="3">
0.000000e+00 0.000000e+00 0
0.000000e+00 0.000000e+00 0
0.000000e+00 0.000000e+00 0
0.000000e+00 0.000000e+00 0
0.000000e+00 0.000000e+00 0
0.000000e+00 0.000000e+00 0
0.000000e+00 0.000000e+00 0
0.000000e+00 0.000000e+00 0
0.000000e+00 0.000000e+00 0
0.000000e+00 0.000000e+00 0
0.000000e+00 0.000000e+00 0
0.000000e+00 0.000000e+00 0
0.000000e+00 0.000000e+00 0
0.000000e+00 0.000000e+00 0
0.000000e+00 0.000000e+00 0
0.000000e+00 0.000000e+00 0
0.000000e+00 0.000000e+00 0
0.000000e+00 0.000000e+00 0
0.000000e+00 0.000000e+00 0
-1.116928e-20 0.000000e+00 0
0.000000e+00 0.000000e+00 0
0.000000e+00 0.000000e+00 0
0.000000e+00 0.000000e+00 0
4.877182e-20 0.000000e+00 0
0.000000e+00 0.000000e+00 0
0.000000e+00 0.000000e+00 0
0.000000e+00 0.000000e+00 0
4.680900e-20 0.000000e+00 0
0.000000e+00 0.000000e+00 0
0.000000e+00 0.000000e+00 0
0.000000e+00 0.000000e+00 0
6.508009e-21 0.000000e+00 0
0.000000e+00 0.000000e+00 0
0.000000e+00 0.000000e+00 0
0.000000e+00 0.000000e+00 0
0.000000e+00 0.000000e+00 0
0.000000e+00 0.000000e+00 0
0.000000e+00 0.000000e+00 0
-4.409695e-21 0.000000e+00 0
0.000000e+00 0.000000e+00 0
0.000000e+00 0.000000e+00 0
0.000000e+00 0.000000e+00 0
0.000000e+00 0.000000e+00 0
0.000000e+00 0.000000e+00 0
0.000000e+00 0.000000e+00 0
0.000000e+00 0.000000e+00 0
-1.733941e-19 0.000000e+00 0
0.000000e+00 0.000000e+00 0
0.000000e+00 0.000000e+00 0
0.000000e+00 0.000000e+00 0
0.000000e+00 0.000000e+00 0
0.000000e+00 0.000000e+00 0
0.000000e+00 0.000000e+00 0
0.000000e+00 0.000000e+00 0
3.697520e-19 0.000000e+00 0
0.000000e+00 0.000000e+00 0
0.000000e+00 0.000000e+00 0
0.000000e+00 0.000000e+00 0
0.000000e+00 0.000000e+00 0
0.000000e+00 0.000000e+00 0
0.000000e+00 0.000000e+00 0
0.000000e+00 0.000000e+00 0
-3.142099e-20 0.000000e+00 0
0.000000e+00 0.000000e+00 0
0.000000e+00 0.000000e+00 0
0.000000e+00 0.000000e+00 0
0.000000e+00 0.000000e+00 0
0.000000e+00 0.000000e+00 0
0.000000e+00 0.000000e+00 0
0.000000e+00 0.000000e+00 0
0.000000e+00 0.000000e+00 0
0.000000e+00 0.000000e+00 0
0.000000e+00 0.000000e+00 0
0.000000e+00 0.000000e+00 0
0.000000e+00 0.000000e+00 0
0.000000e+00 0.000000e+00 0
0.000000e+00 0.000000e+00 0
0.000000e+00 0.000000e+00 0
0.000000e+00 0.000000e+00 0
0.000000e+00 0.000000e+00 0
0.000000e+00 0.000000e+00 0
0.000000e+00 0.000000e+00 0
0.000000e+00 0.000000e+00 0
0.000000e+00 0.000000e+00 0
0.000000e+00 0.000000e+00 0
0.000000e+00 0.000000e+00 0
0.000000e+00 0.000000e+00 0
0.000000e+00 0.000000e+00 0
0.000000e+00 0.000000e+00 0
0.000000e+00 0.000000e+00 0
0.000000e+00 0.000000e+00 0
0.000000e+00 0.000000e+00 0
0.000000e+00 0.000000e+00 0
0.000000e+00 0.000000e+00 0
0.000000e+00 0.000000e+00 0
0.000000e+00 0.000000e+00 0
0.000000e+00 0.000000e+00 0
0.000000e+00 0.000000e+00 0
0.000000e+00 0.000000e+00 0
0.000000e+00 0.000000e+00 0
0.000000e+00 0.000000e+00 0
0.000000e+00 0.000000e+00 0
0.000000e+00 0.000000e+00 0
0.000000e+00 0.000000e+00 0
0.000000e+00 0.000000e+00 0
0.000000e+00 0.000000e+00 0
0.000000e+00 0.000000e+00 0
0.000000e+00 0.000000e+00 0
0.000000e+00 0.000000e+00 0
0.000000e+00 0.000000e+00 0
0.000000e+00 0.000000e+00 0
0.000000e+00 0.000000e+00 0
0.000000e+00 0.000000e+00 0
0.000000e+00 0.000000e+00 0
0.000000e+00 0.000000e+00 0
0.000000e+00 0.000000e+00 0
0.000000e+00 0.000000e+00 0
0.000000e+00 0.000000e+00 0
0.000000e+00 0.000000e+00 0
0.000000e+00 0.000000e+00 0
0.000000e+00 0.000000e+00 0
0.000000e+00 0.000000e+00 0
0.000000e+00 0.000000e+00 0
0.000000e+00 0.000000e+00 0
0.000000e+00 0.000000e+00 0
0.000000e+00 0.000000e+00 0
0.000000e+00 0.000000e+00 0
0.000000e+00 0.000000e+00 0
0.000000e+00 0.000000e+00 0
0.000000e+00 0.000000e+00 0
0.000000e+00 0.000000e+00 0
0.000000e+00 0.000000e+00 0
0.000000e+00 0.000000e+00 0
0.000000e+00 0.000000e+00 0
0.000000e+00 0.000000e+00 0
0.000000e+00 0.000000e+00 0
0.000000e+00 0.000000e+00 0
0.000000e+00 0.000000e+00 0
0.000000e+00 0.000000e+00 0
0.000000e+00 0.000000e+00 0
0.000000e+00 0.000000e+00 0
0.000000e+00 0.000000e+00 0
0.000000e+00 0.000000e+00 0
0.000000e+00 0.000000e+00 0
0.000000e+00 0.000000e+00 0
0.000000e+00 0.000000e+00 0
0.000000e+00 0.000000e+00 0
0.000000e+00 0.000000e+00 0
0.000000e+00 0.000000e+00 0
0.000000e+00 0.000000e+00 0
0.000000e+00 0.000000e+00 0
0.000000e+00 0.000000e+00 0
0.000000e+00 0.000000e+00 0
0.000000e+00 0.000000e+00 0
0.000000e+00 0.000000e+00 0
0.000000e+00 0.000000e+00 0
0.000000e+00 0.000000e+00 0
0.000000e+00 0.000000e+00 0
0.000000e+00 0.000000e+00 0
0.000000e+00 0.000000e+00 0
-5.363367e-03 -1.164014e-02 0
-1.079756e-02 -2.295487e-02 0
-1.599528e-02 -3.294829e-02 0
-2.049914e-02 -4.037019e-02 0
-2.395151e-02 -4.437571e-02 0
-2.622261e-02 -4.484891e-02 0
-2.740507e-02 -4.232836e-02 0
-2.774245e-02 -3.771456e-02 0
-2.755646e-02 -3.196790e-02 0
-2.720136e-02 -2.590444e-02 0
-2.705251e-02 -2.010480e-02 0
-2.753898e-02 -1.490866e-02 0
-2.925167e-02 -1.045740e-02 0
-3.322008e-02 -6.752668e-03 0
-4.162102e-02 -3.709801e-03 0
-5.957332e-02 -1.202270e-03 0
0.000000e+00 0.000000e+00 0
-1.588523e-04 1.657320e-04 0
-5.838682e-04 3.239904e-04 0
-1.146344e-03 3.918889e-04 0
-1.718471e-03 3.758256e-04 0
-2.199040e-03 2.994210e-04 0
-2.518533e-03 1.856937e-04 0
-2.636196e-03 5.337779e-05 0
-2.534799e-03 -8.343867e-05 0
-2.215392e-03 -2.147990e-04 0
-1.692352e-03 -3.341501e-04 0
-9.886537e-04 -4.375733e-04 0
-1.321357e-04 -5.230703e-04 0
8.469559e-04 -5.899152e-04 0
1.918430e-03 -6.383953e-04 0
3.053694e-03 -6.697467e-04 0
4.226543e-03 -6.857432e-04 0
5.413677e-03 -6.883684e-04 0
6.594939e-03 -6.796749e-04 0
7.753370e-03 -6.616718e-04 0
8.875126e-03 -6.362375e-04 0
9.949293e-03 -6.050652e-04 0
1.096762e-02 -5.696517e-04 0
1.192416e-02 -5.313225e-04 0
1.281499e-02 -4.912577e-04 0
1.363788e-02 -4.504879e-04 0
1.439210e-02 -4.098650e-04 0
1.507820e-02 -3.700456e-04 0
1.569775e-02 -3.315155e-04 0
1.625310e-02 -2.946431e-04 0
1.674717e-02 -2.597241e-04 0
1.718325e-02 -2.269895e-04 0
1.756495e-02 -1.965882e-04 0
1.789609e-02 -1.685764e-04 0
1.818061e-02 -1.429345e-04 0
1.842244e-02 -1.196049e-04 0
1.862542e-02 -9.852136e-05 0
1.879325e-02 -7.961436e-05 0
1.892949e-02 -6.279545e-05 0
1.903754e-02 -4.794473e-05 0
1.912063e-02 -3.491689e-05 0
1.918178e-02 -2.356292e-05 0
1.922380e-02 -1.374911e-05 0
1.924924e-02 -5.355982e-06 0
1.926045e-02 1.752781e-06 0
1.925955e-02 7.740771e-06 0
1.924843e-02 1.272628e-05 0
1.922877e-02 1.679347e-05 0
1.920213e-02 2.004233e-05 0
1.916986e-02 2.256612e-05 0
1.913318e-02 2.445139e-05 0
1.909315e-02 2.578122e-05 0
1.905071e-02 2.663490e-05 0
1.900666e-02 2.708456e-05 0
1.896170e-02 2.719263e-05 0
1.891641e-02 2.701244e-05 0
1.887130e-02 2.659065e-05 0
1.882678e-02 2.596923e-05 0
1.878321e-02 2.518597e-05 0
1.874087e-02 2.427427e-05 0
1.869998e-02 2.326313e-05 0
1.866073e-02 2.217766e-05 0
1.862325e-02 2.103969e-05 0
1.858765e-02 1.986827e-05 0
1.855397e-02 1.867987e-05 0
1.852227e-02 1.748865e-05 0
1.849255e-02 1.630654e-05 0
1.846481e-02 1.514348e-05 0
1.843901e-02 1.400763e-05 0
1.841513e-02 1.290566e-05 0
1.839309e-02 1.184298e-05 0
1.837284e-02 1.082393e-05 0
1.835432e-02 9.851846e-06 0
1.833743e-02 8.929073e-06 0
1.832211e-02 8.057083e-06 0
1.830827e-02 7.236593e-06 0
1.829582e-02 6.467712e-06 0
1.828468e-02 5.750075e-06 0
1.827476e-02 5.082922e-06 0
1.826598e-02 4.465156e-06 0
1.825825e-02 3.895391e-06 0
1.825149e-02 3.371996e-06 0
1.824563e-02 2.893138e-06 0
1.824059e-02 2.456810e-06 0
1.823629e-02 2.060877e-06 0
1.823268e-02 1.703123e-06 0
1.822968e-02 1.381305e-06 0
1.822723e-02 1.093184e-06 0
1.822528e-02 8.365282e-07 0
1.822377e-02 6.091058e-07 0
1.822266e-02 4.086855e-07 0
1.822189e-02 2.330672e-07 0
1.822143e-02 8.019470e-08 0
1.822123e-02 -5.136107e-08 0
1.822126e-02 -1.626482e-07 0
1.822149e-02 -2.556290e-07 0
1.822188e-02 -3.326461e-07 0
1.822240e-02 -3.954632e-07 0
1.822304e-02 -4.455697e-07 0
1.822377e-02 -4.842918e-07 0
1.822456e-02 -5.128511e-07 0
1.822541e-02 -5.323909e-07 0
1.822629e-02 -5.439844e-07 0
1.822720e-02 -5.486368e-07 0
1.822812e-02 -5.472855e-07 0
1.822903e-02 -5.408006e-07 0
1.822994e-02 -5.299850e-07 0
1.823083e-02 -5.155739e-07 0
1.823170e-02 -4.982342e-07 0
1.823254e-02 -4.785659e-07 0
1.823335e-02 -4.571049e-07 0
1.823412e-02 -4.343263e-07 0
1.823485e-02 -4.106488e-07 0
1.823555e-02 -3.864382e-07 0
1.823621e-02 -3.620112e-07 0
1.823682e-02 -3.376399e-07 0
1.823740e-02 -3.135554e-07 0
1.823793e-02 -2.899519e-07 0
1.823842e-02 -2.669895e-07 0
1.823888e-02 -2.447984e-07 0
1.823930e-02 -2.234812e-07 0
1.823968e-02 -2.031168e-07 0
1.824003e-02 -1.837636e-07 0
1.824034e-02 -1.654616e-07 0
1.824063e-02 -1.482357e-07 0
1.824088e-02 -1.320987e-07 0
1.824111e-02 -1.170537e-07 0
1.824131e-02 -1.030980e-07 0
1.824149e-02 -9.022603e-08 0
1.824165e-02 -7.843538e-08 0
1.824178e-02 -6.773330e-08 0
1.824190e-02 -5.814678e-08 0
1.824200e-02 -4.973779e-08 0
1.824209e-02 -4.262739e-08 0
1.824217e-02 -3.703569e-08 0
1.824223e-02 -3.335180e-08 0
1.824230e-02 -3.225970e-08 0
1.824235e-02 -3.495870e-08 0
1.824242e-02 -4.348025e-08 0
1.824249e-02 -6.069072e-08 0
1.824257e-02 -8.718342e-08 0
1.824257e-02 -1.024991e-07 0
0.000000e+00 0.000000e+00 0
-9.914654e-03 -2.189165e-02 0
-1.968228e-02 -4.258615e-02 0
-2.872629e-02 -6.019360e-02 0
-3.637702e-02 -7.277639e-02 0
-4.222145e-02 -7.930300e-02 0
-4.619802e-02 -7.990448e-02 0
-4.851633e-02 -7.558704e-02 0
-4.954477e-02 -6.778093e-02 0
-4.973746e-02 -5.796622e-02 0
-4.960219e-02 -4.743264e-02 0
-4.969377e-02 -3.715611e-02 0
-5.063095e-02 -2.776656e-02 0
-5.314631e-02 -1.958243e-02 0
-5.816614e-02 -1.268396e-02 0
-6.683256e-02 -6.999828e-03 0
-8.005643e-02 -2.390379e-03 0
0.000000e+00 0.000000e+00 0
-3.201568e-04 6.143599e-04 0
-1.019589e-03 1.039207e-03 0
-1.880672e-03 1.195628e-03 0
-2.713825e-03 1.110044e-03 0
-3.368730e-03 8.433784e-04 0
-3.740018e-03 4.601303e-04 0
-3.765450e-03 1.637294e-05 0
-3.419705e-03 -4.436488e-04 0
-2.707148e-03 -8.871725e-04 0
-1.653427e-03 -1.291685e-03 0
-2.977451e-04 -1.643133e-03 0
1.311752e-03 -1.933578e-03 0
3.123875e-03 -2.160230e-03 0
5.087954e-03 -2.324722e-03 0
7.155959e-03 -2.431333e-03 0
9.283865e-03 -2.485773e-03 0
1.143253e-02 -2.494517e-03 0
1.356809e-02 -2.464302e-03 0
1.566197e-02 -2.401759e-03 0
1.769079e-02 -2.313161e-03 0
1.963595e-02 -2.204273e-03 0
2.148320e-02 -2.080294e-03 0
2.322217e-02 -1.945847e-03 0
2.484583e-02 -1.804973e-03 0
2.635014e-02 -1.661124e-03 0
2.773360e-02 -1.517159e-03 0
2.899688e-02 -1.375387e-03 0
3.014233e-02 -1.237640e-03 0
3.117367e-02 -1.105363e-03 0
3.209561e-02 -9.796615e-04 0
3.291366e-02 -8.613348e-04 0
3.363394e-02 -7.508900e-04 0
3.426296e-02 -6.485834e-04 0
3.480742e-02 -5.544797e-04 0
3.527404e-02 -4.685105e-04 0
3.566947e-02 -3.905095e-04 0
3.600018e-02 -3.202241e-04 0
3.627246e-02 -2.573185e-04 0
3.649234e-02 -2.013890e-04 0
3.666556e-02 -1.519935e-04 0
3.679747e-02 -1.086830e-04 0
3.689308e-02 -7.101633e-05 0
3.695700e-02 -3.855542e-05 0
3.699351e-02 -1.084603e-05 0
3.700654e-02 1.264174e-05 0
3.699967e-02 3.239357e-05 0
3.697601e-02 4.875982e-05 0
3.693835e-02 6.206652e-05 0
3.688925e-02 7.264262e-05 0
3.683097e-02 8.080837e-05 0
3.676553e-02 8.686712e-05 0
3.669469e-02 9.109874e-05 0
3.662000e-02 9.375564e-05 0
3.654280e-02 9.506275e-05 0
3.646423e-02 9.522054e-05 0
3.638529e-02 9.440836e-05 0
3.630680e-02 9.278668e-05 0
3.622947e-02 9.049830e-05 0
3.615388e-02 8.766939e-05 0
3.608051e-02 8.441102e-05 0
3.600974e-02 8.082081e-05 0
3.594186e-02 7.698434e-05 0
3.587710e-02 7.297636e-05 0
3.581563e-02 6.886175e-05 0
3.575753e-02 6.469636e-05 0
3.570288e-02 6.052790e-05 0
3.565169e-02 5.639674e-05 0
3.560393e-02 5.233676e-05 0
3.555955e-02 4.837608e-05 0
3.551848e-02 4.453776e-05 0
3.548063e-02 4.084028e-05 0
3.544587e-02 3.729803e-05 0
3.541409e-02 3.392170e-05 0
3.538516e-02 3.071879e-05 0
3.535892e-02 2.769401e-05 0
3.533524e-02 2.484972e-05 0
3.531395e-02 2.218626e-05 0
3.529493e-02 1.970227e-05 0
3.527800e-02 1.739487e-05 0
3.526303e-02 1.526000e-05 0
3.524988e-02 1.329253e-05 0
3.523840e-02 1.148652e-05 0
3.522845e-02 9.835351e-06 0
3.521992e-02 8.331884e-06 0
3.521266e-02 6.968646e-06 0
3.520657e-02 5.737940e-06 0
3.520153e-02 4.631932e-06 0
3.519744e-02 3.642720e-06 0
3.519420e-02 2.762386e-06 0
3.519171e-02 1.983076e-06 0
3.518990e-02 1.297092e-06 0
3.518867e-02 6.970511e-07 0
3.518796e-02 1.761565e-07 0
3.518770e-02 -2.704692e-07 0
3.518784e-02 -6.480414e-07 0
3.518830e-02 -9.637682e-07 0
3.518903e-02 -1.224395e-06 0
3.519000e-02 -1.435705e-06 0
3.519115e-02 -1.602839e-06 0
3.519245e-02 -1.730507e-06 0
3.519386e-02 -1.823081e-06 0
3.519536e-02 -1.884648e-06 0
3.519692e-02 -1.919021e-06 0
3.519851e-02 -1.929756e-06 0
3.520011e-02 -1.920146e-06 0
3.520171e-02 -1.893229e-06 0
3.520329e-02 -1.851785e-06 0
3.520484e-02 -1.798339e-06 0
3.520634e-02 -1.735174e-06 0
3.520780e-02 -1.664337e-06 0
3.520919e-02 -1.587654e-06 0
3.521053e-02 -1.506739e-06 0
3.521180e-02 -1.423013e-06 0
3.521300e-02 -1.337711e-06 0
3.521413e-02 -1.251903e-06 0
3.521519e-02 -1.166505e-06 0
3.521617e-02 -1.082293e-06 0
3.521709e-02 -9.999137e-07 0
3.521794e-02 -9.199018e-07 0
3.521872e-02 -8.426882e-07 0
3.521944e-02 -7.686133e-07 0
3.522009e-02 -6.979374e-07 0
3.522069e-02 -6.308520e-07 0
3.522122e-02 -5.674894e-07 0
3.522171e-02 -5.079338e-07 0
3.522214e-02 -4.522316e-07 0
3.522253e-02 -4.004036e-07 0
3.522288e-02 -3.524586e-07 0
3.522318e-02 -3.084108e-07 0
3.522345e-02 -2.683021e-07 0
3.522368e-02 -2.322318e-07 0
3.522388e-02 -2.003981e-07 0
3.522406e-02 -1.731561e-07 0
3.522421e-02 -1.510978e-07 0
3.522434e-02 -1.351592e-07 0
3.522446e-02 -1.267403e-07 0
3.522457e-02 -1.277629e-07 0
3.522468e-02 -1.403759e-07 0
3.522479e-02 -1.653928e-07 0
3.522490e-02 -1.971613e-07 0
3.522490e-02 -2.133814e-07 0
0.000000e+00 0.000000e+00 0
-1.319536e-02 -3.000393e-02 0
-2.582402e-02 -5.761604e-02 0
-3.714216e-02 -8.030226e-02 0
-4.651971e-02 -9.599582e-02 0
-5.371769e-02 -1.039413e-01 0
-5.884895e-02 -1.046534e-01 0
-6.221608e-02 -9.943180e-02 0
-6.419641e-02 -8.989490e-02 0
-6.521011e-02 -7.768035e-02 0
-6.573072e-02 -6.426783e-02 0
-6.629370e-02 -5.086423e-02 0
-6.748385e-02 -3.833816e-02 0
-6.989667e-02 -2.721273e-02 0
-7.405257e-02 -1.771482e-02 0
-8.019604e-02 -9.859226e-03 0
-8.787034e-02 -3.535534e-03 0
0.000000e+00 0.000000e+00 0
-4.132977e-04 1.238424e-03 0
-1.259521e-03 1.968327e-03 0
-2.241593e-03 2.178071e-03 0
-3.124468e-03 1.944096e-03 0
-3.731896e-03 1.379894e-03 0
-3.945383e-03 6.026218e-04 0
-3.699110e-03 -2.844284e-04 0
-2.972217e-03 -1.197778e-03 0
-1.779179e-03 -2.074567e-03 0
-1.586325e-04 -2.871655e-03 0
1.833785e-03 -3.560995e-03 0
4.134720e-03 -4.127533e-03 0
6.678791e-03 -4.567797e-03 0
9.401999e-03 -4.885566e-03 0
1.224412e-02 -5.089270e-03 0
1.515038e-02 -5.190150e-03 0
1.807234e-02 -5.200901e-03 0
2.096824e-02 -5.134680e-03 0
2.380293e-02 -5.004419e-03 0
2.654758e-02 -4.822370e-03 0
2.917925e-02 -4.599839e-03 0
3.168027e-02 -4.347055e-03 0
3.403768e-02 -4.073113e-03 0
3.624272e-02 -3.785945e-03 0
3.829028e-02 -3.492324e-03 0
4.017845e-02 -3.197905e-03 0
4.190793e-02 -2.907334e-03 0
4.348154e-02 -2.624366e-03 0
4.490381e-02 -2.351976e-03 0
4.618059e-02 -2.092443e-03 0
4.731884e-02 -1.847408e-03 0
4.832627e-02 -1.617956e-03 0
4.921117e-02 -1.404705e-03 0
4.998205e-02 -1.207909e-03 0
5.064753e-02 -1.027536e-03 0
5.121619e-02 -8.633167e-04 0
5.169645e-02 -7.147791e-04 0
5.209655e-02 -5.812842e-04 0
5.242441e-02 -4.620738e-04 0
5.268756e-02 -3.563199e-04 0
5.289311e-02 -2.631633e-04 0
5.304770e-02 -1.817295e-04 0
5.315752e-02 -1.111295e-04 0
5.322835e-02 -5.045659e-05 0
5.326550e-02 1.206287e-06 0
5.327390e-02 4.487272e-05 0
5.325786e-02 8.140341e-05 0
5.322128e-02 1.114463e-04 0
5.316764e-02 1.356804e-04 0
5.310009e-02 1.547647e-04 0
5.302144e-02 1.693198e-04 0
5.293419e-02 1.799183e-04 0
5.284049e-02 1.870803e-04 0
5.274227e-02 1.912762e-04 0
5.264118e-02 1.929298e-04 0
5.253865e-02 1.924228e-04 0
5.243590e-02 1.900973e-04 0
5.233396e-02 1.862584e-04 0
5.223373e-02 1.811773e-04 0
5.213590e-02 1.750945e-04 0
5.204107e-02 1.682221e-04 0
5.194972e-02 1.607475e-04 0
5.186220e-02 1.528344e-04 0
5.177880e-02 1.446257e-04 0
5.169969e-02 1.362452e-04 0
5.162501e-02 1.277993e-04 0
5.155482e-02 1.193786e-04 0
5.148912e-02 1.110601e-04 0
5.142788e-02 1.029080e-04 0
5.137103e-02 9.497549e-05 0
5.131847e-02 8.730571e-05 0
5.127006e-02 7.993274e-05 0
5.122565e-02 7.288275e-05 0
5.118508e-02 6.617490e-05 0
5.114818e-02 5.982233e-05 0
5.111475e-02 5.383288e-05 0
5.108461e-02 4.820985e-05 0
5.105755e-02 4.295262e-05 0
5.103339e-02 3.805721e-05 0
5.101193e-02 3.351686e-05 0
5.099298e-02 2.932239e-05 0
5.097635e-02 2.546275e-05 0
5.096186e-02 2.192529e-05 0
5.094933e-02 1.869621e-05 0
5.093860e-02 1.576080e-05 0
5.092951e-02 1.310373e-05 0
5.092190e-02 1.070926e-05 0
5.091564e-02 8.561397e-06 0
5.091058e-02 6.644079e-06 0
5.090659e-02 4.941349e-06 0
5.090357e-02 3.437525e-06 0
5.090140e-02 2.117421e-06 0
5.089997e-02 9.666241e-07 0
5.089919e-02 -2.822911e-08 0
5.089899e-02 -8.772372e-07 0
5.089927e-02 -1.592100e-06 0
5.089996e-02 -2.187294e-06 0
5.090100e-02 -2.675079e-06 0
5.090233e-02 -3.066503e-06 0
5.090389e-02 -3.371717e-06 0
5.090562e-02 -3.600145e-06 0
5.090750e-02 -3.760573e-06 0
5.090948e-02 -3.861199e-06 0
5.091152e-02 -3.909648e-06 0
5.091360e-02 -3.912988e-06 0
5.091570e-02 -3.877731e-06 0
5.091778e-02 -3.809843e-06 0
5.091983e-02 -3.714755e-06 0
5.092184e-02 -3.597385e-06 0
5.092379e-02 -3.462156e-06 0
5.092567e-02 -3.313023e-06 0
5.092747e-02 -3.153497e-06 0
5.092919e-02 -2.986674e-06 0
5.093082e-02 -2.815266e-06 0
5.093237e-02 -2.641629e-06 0
5.093382e-02 -2.467789e-06 0
5.093517e-02 -2.295475e-06 0
5.093644e-02 -2.126144e-06 0
5.093761e-02 -1.961006e-06 0
5.093870e-02 -1.801053e-06 0
5.093970e-02 -1.647079e-06 0
5.094061e-02 -1.499707e-06 0
5.094145e-02 -1.359406e-06 0
5.094221e-02 -1.226521e-06 0
5.094289e-02 -1.101285e-06 0
5.094351e-02 -9.838499e-07 0
5.094406e-02 -8.743039e-07 0
5.094456e-02 -7.727031e-07 0
5.094499e-02 -6.791017e-07 0
5.094538e-02 -5.935919e-07 0
5.094572e-02 -5.163533e-07 0
5.094601e-02 -4.477161e-07 0
5.094627e-02 -3.882381e-07 0
5.094649e-02 -3.387927e-07 0
5.094669e-02 -3.006479e-07 0
5.094686e-02 -2.754745e-07 0
5.094702e-02 -2.651304e-07 0
5.094716e-02 -2.708655e-07 0
5.094729e-02 -2.912706e-07 0
5.094741e-02 -3.181082e-07 0
5.094741e-02 -3.315087e-07 0
0.000000e+00 0.000000e+00 0
-1.514181e-02 -3.595803e-02 0
-2.927756e-02 -6.835642e-02 0
-4.160793e-02 -9.427650e-02 0
-5.167810e-02 -1.118301e-01 0
-5.949421e-02 -1.206848e-01 0
-6.534637e-02 -1.217010e-01 0
-6.959353e-02 -1.163180e-01 0
-7.256149e-02 -1.061379e-01 0
-7.455259e-02 -9.274501e-02 0
-7.589948e-02 -7.762979e-02 0
-7.700019e-02 -6.211225e-02 0
-7.830190e-02 -4.725367e-02 0
-8.022823e-02 -3.379384e-02 0
-8.305783e-02 -2.214665e-02 0
-8.676768e-02 -1.245156e-02 0
-9.088571e-02 -4.648903e-03 0
0.000000e+00 0.000000e+00 0
-4.514201e-04 1.940335e-03 0
-1.336834e-03 2.966524e-03 0
-2.295813e-03 3.161342e-03 0
-3.057227e-03 2.679736e-03 0
-3.432163e-03 1.707047e-03 0
-3.305057e-03 4.248471e-04 0
-2.621976e-03 -1.008527e-03 0
-1.379647e-03 -2.465234e-03 0
3.884902e-04 -3.850228e-03 0
2.624985e-03 -5.097291e-03 0
5.258953e-03 -6.165797e-03 0
8.215384e-03 -7.037324e-03 0
1.141909e-02 -7.708533e-03 0
1.479811e-02 -8.186721e-03 0
1.828610e-02 -8.486026e-03 0
2.182356e-02 -8.624611e-03 0
2.535846e-02 -8.622599e-03 0
2.884627e-02 -8.500633e-03 0
3.224978e-02 -8.278871e-03 0
3.553857e-02 -7.976361e-03 0
3.868851e-02 -7.610666e-03 0
4.168105e-02 -7.197669e-03 0
4.450267e-02 -6.751474e-03 0
4.714432e-02 -6.284376e-03 0
4.960088e-02 -5.806894e-03 0
5.187058e-02 -5.327876e-03 0
5.395444e-02 -4.854653e-03 0
5.585573e-02 -4.393197e-03 0
5.757958e-02 -3.948261e-03 0
5.913263e-02 -3.523491e-03 0
6.052273e-02 -3.121548e-03 0
6.175862e-02 -2.744240e-03 0
6.284961e-02 -2.392672e-03 0
6.380534e-02 -2.067368e-03 0
6.463558e-02 -1.768380e-03 0
6.535012e-02 -1.495355e-03 0
6.595863e-02 -1.247605e-03 0
6.647060e-02 -1.024180e-03 0
6.689517e-02 -8.239464e-04 0
6.724106e-02 -6.456490e-04 0