<?xml version="1.0"?>
<VTKFile type="StructuredGrid">
<StructuredGrid WholeExtent="0 158 0 30 0 0 ">
<Piece Extent="0 158 0 30 0 0 ">
<Points>
<DataArray type="Float64" format="ascii" NumberOfComponents="3">
0.000000e+00 0.000000e+00 0.000000e+00
3.164557e-02 0.000000e+00 0.000000e+00
6.329114e-02 0.000000e+00 0.000000e+00
9.493671e-02 0.000000e+00 0.000000e+00
1.265823e-01 0.000000e+00 0.000000e+00
1.582278e-01 0.000000e+00 0.000000e+00
1.898734e-01 0.000000e+00 0.000000e+00
2.215190e-01 0.000000e+00 0.000000e+00
2.531646e-01 0.000000e+00 0.000000e+00
2.848101e-01 0.000000e+00 0.000000e+00
3.164557e-01 0.000000e+00 0.000000e+00
3.481013e-01 0.000000e+00 0.000000e+00
3.797468e-01 0.000000e+00 0.000000e+00
4.113924e-01 0.000000e+00 0.000000e+00
4.430380e-01 0.000000e+00 0.000000e+00
4.746835e-01 0.000000e+00 0.000000e+00
5.063291e-01 0.000000e+00 0.000000e+00
5.379747e-01 0.000000e+00 0.000000e+00
5.696203e-01 0.000000e+00 0.000000e+00
6.012658e-01 0.000000e+00 0.000000e+00
6.329114e-01 0.000000e+00 0.000000e+00
6.645570e-01 0.000000e+00 0.000000e+00
6.962025e-01 0.000000e+00 0.000000e+00
7.278481e-01 0.000000e+00 0.000000e+00
7.594937e-01 0.000000e+00 0.000000e+00
7.911392e-01 0.000000e+00 0.000000e+00
8.227848e-01 0.000000e+00 0.000000e+00
8.544304e-01 0.000000e+00 0.000000e+00
8.860759e-01 0.000000e+00 0.000000e+00
9.177215e-01 0.000000e+00 0.000000e+00
9.493671e-01 0.000000e+00 0.000000e+00
9.810127e-01 0.000000e+00 0.000000e+00
1.012658e+00 0.000000e+00 0.000000e+00
1.044304e+00 0.000000e+00 0.000000e+00
1.075949e+00 0.000000e+00 0.000000e+00
1.107595e+00 0.000000e+00 0.000000e+00
1.139241e+00 0.000000e+00 0.000000e+00
1.170886e+00 0.000000e+00 0.000000e+00
1.202532e+00 0.000000e+00 0.000000e+00
1.234177e+00 0.000000e+00 0.000000e+00
1.265823e+00 0.000000e+00 0.000000e+00
1.297468e+00 0.000000e+00 0.000000e+00
1.329114e+00 0.000000e+00 0.000000e+00
1.360759e+00 0.000000e+00 0.000000e+00
1.392405e+00 0.000000e+00 0.000000e+00
1.424051e+00 0.000000e+00 0.000000e+00
1.455696e+00 0.000000e+00 0.000000e+00
1.487342e+00 0.000000e+00 0.000000e+00
1.518987e+00 0.000000e+00 0.000000e+00
1.550633e+00 0.000000e+00 0.000000e+00
1.582278e+00 0.000000e+00 0.000000e+00
1.613924e+00 0.000000e+00 0.000000e+00
1.645570e+00 0.000000e+00 0.000000e+00
1.677215e+00 0.000000e+00 0.000000e+00
1.708861e+00 0.000000e+00 0.000000e+00
1.740506e+00 0.000000e+00 0.000000e+00
1.772152e+00 0.000000e+00 0.000000e+00
1.803797e+00 0.000000e+00 0.000000e+00
1.835443e+00 0.000000e+00 0.000000e+00
1.867089e+00 0.000000e+00 0.000000e+00
1.898734e+00 0.000000e+00 0.000000e+00
1.930380e+00 0.000000e+00 0.000000e+00
1.962025e+00 0.000000e+00 0.000000e+00
1.993671e+00 0.000000e+00 0.000000e+00
2.025316e+00 0.000000e+00 0.000000e+00
2.056962e+00 0.000000e+00 0.000000e+00
2.088608e+00 0.000000e+00 0.000000e+00
2.120253e+00 0.000000e+00 0.000000e+00
2.151899e+00 0.000000e+00 0.000000e+00
2.183544e+00 0.000000e+00 0.000000e+00
2.215190e+00 0.000000e+00 0.000000e+00
2.246835e+00 0.000000e+00 0.000000e+00
2.278481e+00 0.000000e+00 0.000000e+00
2.310127e+00 0.000000e+00 0.000000e+00
2.341772e+00 0.000000e+00 0.000000e+00
2.373418e+00 0.000000e+00 0.000000e+00
2.405063e+00 0.000000e+00 0.000000e+00
2.436709e+00 0.000000e+00 0.000000e+00
2.468354e+00 0.000000e+00 0.000000e+00
2.500000e+00 0.000000e+00 0.000000e+00
2.531646e+00 0.000000e+00 0.000000e+00
2.563291e+00 0.000000e+00 0.000000e+00
2.594937e+00 0.000000e+00 0.000000e+00
2.626582e+00 0.000000e+00 0.000000e+00
2.658228e+00 0.000000e+00 0.000000e+00
2.689873e+00 0.000000e+00 0.000000e+00
2.721519e+00 0.000000e+00 0.000000e+00
2.753165e+00 0.000000e+00 0.000000e+00
2.784810e+00 0.000000e+00 0.000000e+00
2.816456e+00 0.000000e+00 0.000000e+00
2.848101e+00 0.000000e+00 0.000000e+00
2.879747e+00 0.000000e+00 0.000000e+00
2.911392e+00 0.000000e+00 0.000000e+00
2.943038e+00 0.000000e+00 0.000000e+00
2.974684e+00 0.000000e+00 0.000000e+00
3.006329e+00 0.000000e+00 0.000000e+00
3.037975e+00 0.000000e+00 0.000000e+00
3.069620e+00 0.000000e+00 0.000000e+00
3.101266e+00 0.000000e+00 0.000000e+00
3.132911e+00 0.000000e+00 0.000000e+00
3.164557e+00 0.000000e+00 0.000000e+00
3.196203e+00 0.000000e+00 0.000000e+00
3.227848e+00 0.000000e+00 0.000000e+00
3.259494e+00 0.000000e+00 0.000000e+00
3.291139e+00 0.000000e+00 0.000000e+00
3.322785e+00 0.000000e+00 0.000000e+00
3.354430e+00 0.000000e+00 0.000000e+00
3.386076e+00 0.000000e+00 0.000000e+00
3.417722e+00 0.000000e+00 0.000000e+00
3.449367e+00 0.000000e+00 0.000000e+00
3.481013e+00 0.000000e+00 0.000000e+00
3.512658e+00 0.000000e+00 0.000000e+00
3.544304e+00 0.000000e+00 0.000000e+00
3.575949e+00 0.000000e+00 0.000000e+00
3.607595e+00 0.000000e+00 0.000000e+00
3.639241e+00 0.000000e+00 0.000000e+00
3.670886e+00 0.000000e+00 0.000000e+00
3.702532e+00 0.000000e+00 0.000000e+00
3.734177e+00 0.000000e+00 0.000000e+00
3.765823e+00 0.000000e+00 0.000000e+00
3.797468e+00 0.000000e+00 0.000000e+00
3.829114e+00 0.000000e+00 0.000000e+00
3.860759e+00 0.000000e+00 0.000000e+00
3.892405e+00 0.000000e+00 0.000000e+00
3.924051e+00 0.000000e+00 0.000000e+00
3.955696e+00 0.000000e+00 0.000000e+00
3.987342e+00 0.000000e+00 0.000000e+00
4.018987e+00 0.000000e+00 0.000000e+00
4.050633e+00 0.000000e+00 0.000000e+00
4.082278e+00 0.000000e+00 0.000000e+00
4.113924e+00 0.000000e+00 0.000000e+00
4.145570e+00 0.000000e+00 0.000000e+00
4.177215e+00 0.000000e+00 0.000000e+00
4.208861e+00 0.000000e+00 0.000000e+00
4.240506e+00 0.000000e+00 0.000000e+00
4.272152e+00 0.000000e+00 0.000000e+00
4.303797e+00 0.000000e+00 0.000000e+00
4.335443e+00 0.000000e+00 0.000000e+00
4.367089e+00 0.000000e+00 0.000000e+00
4.398734e+00 0.000000e+00 0.000000e+00
4.430380e+00 0.000000e+00 0.000000e+00
4.462025e+00 0.000000e+00 0.000000e+00
4.493671e+00 0.000000e+00 0.000000e+00
4.525316e+00 0.000000e+00 0.000000e+00
4.556962e+00 0.000000e+00 0.000000e+00
4.588608e+00 0.000000e+00 0.000000e+00
4.620253e+00 0.000000e+00 0.000000e+00
4.651899e+00 0.000000e+00 0.000000e+00
4.683544e+00 0.000000e+00 0.000000e+00
4.715190e+00 0.000000e+00 0.000000e+00
4.746835e+00 0.000000e+00 0.000000e+00
4.778481e+00 0.000000e+00 0.000000e+00
4.810127e+00 0.000000e+00 0.000000e+00
4.841772e+00 0.000000e+00 0.000000e+00
4.873418e+00 0.000000e+00 0.000000e+00
4.905063e+00 0.000000e+00 0.000000e+00
4.936709e+00 0.000000e+00 0.000000e+00
4.968354e+00 0.000000e+00 0.000000e+00
5.000000e+00 0.000000e+00 0.000000e+00
0.000000e+00 3.333333e-02 0.000000e+00
3.164557e-02 3.333333e-02 0.000000e+00
6.329114e-02 3.333333e-02 0.000000e+00
9.493671e-02 3.333333e-02 0.000000e+00
1.265823e-01 3.333333e-02 0.000000e+00
1.582278e-01 3.333333e-02 0.000000e+00
1.898734e-01 3.333333e-02 0.000000e+00
2.215190e-01 3.333333e-02 0.000000e+00
2.531646e-01 3.333333e-02 0.000000e+00
2.848101e-01 3.333333e-02 0.000000e+00
3.164557e-01 3.333333e-02 0.000000e+00
3.481013e-01 3.333333e-02 0.000000e+00
3.797468e-01 3.333333e-02 0.000000e+00
4.113924e-01 3.333333e-02 0.000000e+00
4.430380e-01 3.333333e-02 0.000000e+00
4.746835e-01 3.333333e-02 0.000000e+00
5.063291e-01 3.333333e-02 0.000000e+00
5.379747e-01 3.333333e-02 0.000000e+00
5.696203e-01 3.333333e-02 0.000000e+00
6.012658e-01 3.333333e-02 0.000000e+00
6.329114e-01 3.333333e-02 0.000000e+00
6.645570e-01 3.333333e-02 0.000000e+00
6.962025e-01 3.333333e-02 0.000000e+00
7.278481e-01 3.333333e-02 0.000000e+00
7.594937e-01 3.333333e-02 0.000000e+00
7.911392e-01 3.333333e-02 0.000000e+00
8.227848e-01 3.333333e-02 0.000000e+00
8.544304e-01 3.333333e-02 0.000000e+00
8.860759e-01 3.333333e-02 0.000000e+00
9.177215e-01 3.333333e-02 0.000000e+00
9.493671e-01 3.333333e-02 0.000000e+00
9.810127e-01 3.333333e-02 0.000000e+00
1.012658e+00 3.333333e-02 0.000000e+00
1.044304e+00 3.333333e-02 0.000000e+00
1.075949e+00 3.333333e-02 0.000000e+00
1.107595e+00 3.333333e-02 0.000000e+00
1.139241e+00 3.333333e-02 0.000000e+00
1.170886e+00 3.333333e-02 0.000000e+00
1.202532e+00 3.333333e-02 0.000000e+00
1.234177e+00 3.333333e-02 0.000000e+00
1.265823e+00 3.333333e-02 0.000000e+00
1.297468e+00 3.333333e-02 0.000000e+00
1.329114e+00 3.333333e-02 0.000000e+00
1.360759e+00 3.333333e-02 0.000000e+00
1.392405e+00 3.333333e-02 0.000000e+00
1.424051e+00 3.333333e-02 0.000000e+00
1.455696e+00 3.333333e-02 0.000000e+00
1.487342e+00 3.333333e-02 0.000000e+00
1.518987e+00 3.333333e-02 0.000000e+00
1.550633e+00 3.333333e-02 0.000000e+00
1.582278e+00 3.333333e-02 0.000000e+00
1.613924e+00 3.333333e-02 0.000000e+00
1.645570e+00 3.333333e-02 0.000000e+00
1.677215e+00 3.333333e-02 0.000000e+00
1.708861e+00 3.333333e-02 0.000000e+00
1.740506e+00 3.333333e-02 0.000000e+00
1.772152e+00 3.333333e-02 0.000000e+00
1.803797e+00 3.333333e-02 0.000000e+00
1.835443e+00 3.333333e-02 0.000000e+00
1.867089e+00 3.333333e-02 0.000000e+00
1.898734e+00 3.333333e-02 0.000000e+00
1.930380e+00 3.333333e-02 0.000000e+00
1.962025e+00 3.333333e-02 0.000000e+00
1.993671e+00 3.333333e-02 0.000000e+00
2.025316e+00 3.333333e-02 0.000000e+00
2.056962e+00 3.333333e-02 0.000000e+00
2.088608e+00 3.333333e-02 0.000000e+00
2.120253e+00 3.333333e-02 0.000000e+00
2.151899e+00 3.333333e-02 0.000000e+00
2.183544e+00 3.333333e-02 0.000000e+00
2.215190e+00 3.333333e-02 0.000000e+00
2.246835e+00 3.333333e-02 0.000000e+00
2.278481e+00 3.333333e-02 0.000000e+00
2.310127e+00 3.333333e-02 0.000000e+00
2.341772e+00 3.333333e-02 0.000000e+00
2.373418e+00 3.333333e-02 0.000000e+00
2.405063e+00 3.333333e-02 0.000000e+00
2.436709e+00 3.333333e-02 0.000000e+00
2.468354e+00 3.333333e-02 0.000000e+00
2.500000e+00 3.333333e-02 0.000000e+00
2.531646e+00 3.333333e-02 0.000000e+00
2.563291e+00 3.333333e-02 0.000000e+00
2.594937e+00 3.333333e-02 0.000000e+00
2.626582e+00 3.333333e-02 0.000000e+00
2.658228e+00 3.333333e-02 0.000000e+00
2.689873e+00 3.333333e-02 0.000000e+00
2.721519e+00 3.333333e-02 0.000000e+00
2.753165e+00 3.333333e-02 0.000000e+00
2.784810e+00 3.333333e-02 0.000000e+00
2.816456e+00 3.333333e-02 0.000000e+00
2.848101e+00 3.333333e-02 0.000000e+00
2.879747e+00 3.333333e-02 0.000000e+00
[...]
<PointData>
<DataArray Name="Velocity" type="Float64" format="ascii" NumberOfComponents="3">
0.000000e+00 0.000000e+00 0
0.000000e+00 0.000000e+00 0
0.000000e+00 0.000000e+00 0
0.000000e+00 0.000000e+00 0
0.000000e+00 0.000000e+00 0
0.000000e+00 0.000000e+00 0
0.000000e+00 0.000000e+00 0
0.000000e+00 0.000000e+00 0
0.000000e+00 0.000000e+00 0
0.000000e+00 0.000000e+00 0
0.000000e+00 0.000000e+00 0
0.000000e+00 0.000000e+00 0
0.000000e+00 0.000000e+00 0
0.000000e+00 0.000000e+00 0
0.000000e+00 0.000000e+00 0
0.000000e+00 0.000000e+00 0
0.000000e+00 0.000000e+00 0
0.000000e+00 0.000000e+00 0
0.000000e+00 0.000000e+00 0
-6.381860e-18 0.000000e+00 0
0.000000e+00 0.000000e+00 0
0.000000e+00 0.000000e+00 0
0.000000e+00 0.000000e+00 0
2.941951e-17 0.000000e+00 0
0.000000e+00 0.000000e+00 0
0.000000e+00 0.000000e+00 0
0.000000e+00 0.000000e+00 0
-4.339517e-17 0.000000e+00 0
0.000000e+00 0.000000e+00 0
0.000000e+00 0.000000e+00 0
0.000000e+00 0.000000e+00 0
-7.129684e-17 0.000000e+00 0
0.000000e+00 0.000000e+00 0
0.000000e+00 0.000000e+00 0
0.000000e+00 0.000000e+00 0
0.000000e+00 0.000000e+00 0
0.000000e+00 0.000000e+00 0
0.000000e+00 0.000000e+00 0
-1.023415e-16 0.000000e+00 0
0.000000e+00 0.000000e+00 0
0.000000e+00 0.000000e+00 0
0.000000e+00 0.000000e+00 0
0.000000e+00 0.000000e+00 0
0.000000e+00 0.000000e+00 0
0.000000e+00 0.000000e+00 0
0.000000e+00 0.000000e+00 0
1.032150e-16 0.000000e+00 0
0.000000e+00 0.000000e+00 0
0.000000e+00 0.000000e+00 0
0.000000e+00 0.000000e+00 0
0.000000e+00 0.000000e+00 0
0.000000e+00 0.000000e+00 0
0.000000e+00 0.000000e+00 0
0.000000e+00 0.000000e+00 0
-3.653360e-17 0.000000e+00 0
0.000000e+00 0.000000e+00 0
0.000000e+00 0.000000e+00 0
0.000000e+00 0.000000e+00 0
0.000000e+00 0.000000e+00 0
0.000000e+00 0.000000e+00 0
0.000000e+00 0.000000e+00 0
0.000000e+00 0.000000e+00 0
2.091744e-17 0.000000e+00 0
0.000000e+00 0.000000e+00 0
0.000000e+00 0.000000e+00 0
0.000000e+00 0.000000e+00 0
0.000000e+00 0.000000e+00 0
0.000000e+00 0.000000e+00 0
0.000000e+00 0.000000e+00 0
0.000000e+00 0.000000e+00 0
0.000000e+00 0.000000e+00 0
0.000000e+00 0.000000e+00 0
0.000000e+00 0.000000e+00 0
0.000000e+00 0.000000e+00 0
0.000000e+00 0.000000e+00 0
0.000000e+00 0.000000e+00 0
0.000000e+00 0.000000e+00 0
0.000000e+00 0.000000e+00 0
0.000000e+00 0.000000e+00 0
0.000000e+00 0.000000e+00 0
0.000000e+00 0.000000e+00 0
0.000000e+00 0.000000e+00 0
0.000000e+00 0.000000e+00 0
0.000000e+00 0.000000e+00 0
0.000000e+00 0.000000e+00 0
0.000000e+00 0.000000e+00 0
0.000000e+00 0.000000e+00 0
0.000000e+00 0.000000e+00 0
0.000000e+00 0.000000e+00 0
0.000000e+00 0.000000e+00 0
0.000000e+00 0.000000e+00 0
0.000000e+00 0.000000e+00 0
0.000000e+00 0.000000e+00 0
0.000000e+00 0.000000e+00 0
0.000000e+00 0.000000e+00 0
0.000000e+00 0.000000e+00 0
0.000000e+00 0.000000e+00 0
0.000000e+00 0.000000e+00 0
0.000000e+00 0.000000e+00 0
0.000000e+00 0.000000e+00 0
0.000000e+00 0.000000e+00 0
0.000000e+00 0.000000e+00 0
0.000000e+00 0.000000e+00 0
0.000000e+00 0.000000e+00 0
0.000000e+00 0.000000e+00 0
0.000000e+00 0.000000e+00 0
0.000000e+00 0.000000e+00 0
0.000000e+00 0.000000e+00 0
0.000000e+00 0.000000e+00 0
0.000000e+00 0.000000e+00 0
0.000000e+00 0.000000e+00 0
0.000000e+00 0.000000e+00 0
0.000000e+00 0.000000e+00 0
0.000000e+00 0.000000e+00 0
0.000000e+00 0.000000e+00 0
0.000000e+00 0.000000e+00 0
0.000000e+00 0.000000e+00 0
0.000000e+00 0.000000e+00 0
0.000000e+00 0.000000e+00 0
0.000000e+00 0.000000e+00 0
0.000000e+00 0.000000e+00 0
0.000000e+00 0.000000e+00 0
0.000000e+00 0.000000e+00 0
0.000000e+00 0.000000e+00 0
0.000000e+00 0.000000e+00 0
0.000000e+00 0.000000e+00 0
0.000000e+00 0.000000e+00 0
0.000000e+00 0.000000e+00 0
0.000000e+00 0.000000e+00 0
0.000000e+00 0.000000e+00 0
0.000000e+00 0.000000e+00 0
0.000000e+00 0.000000e+00 0
0.000000e+00 0.000000e+00 0
0.000000e+00 0.000000e+00 0
0.000000e+00 0.000000e+00 0
0.000000e+00 0.000000e+00 0
0.000000e+00 0.000000e+00 0
0.000000e+00 0.000000e+00 0
0.000000e+00 0.000000e+00 0
0.000000e+00 0.000000e+00 0
0.000000e+00 0.000000e+00 0
0.000000e+00 0.000000e+00 0
0.000000e+00 0.000000e+00 0
0.000000e+00 0.000000e+00 0
0.000000e+00 0.000000e+00 0
0.000000e+00 0.000000e+00 0
0.000000e+00 0.000000e+00 0
0.000000e+00 0.000000e+00 0
0.000000e+00 0.000000e+00 0
0.000000e+00 0.000000e+00 0
0.000000e+00 0.000000e+00 0
0.000000e+00 0.000000e+00 0
0.000000e+00 0.000000e+00 0
0.000000e+00 0.000000e+00 0
0.000000e+00 0.000000e+00 0
0.000000e+00 0.000000e+00 0
0.000000e+00 0.000000e+00 0
0.000000e+00 0.000000e+00 0
0.000000e+00 0.000000e+00 0
0.000000e+00 0.000000e+00 0
-4.275309e-02 -4.181025e-02 0
-1.454542e-02 -3.954608e-04 0
-1.659635e-02 4.360002e-04 0
-1.420212e-02 4.133893e-04 0
-1.328309e-02 4.673324e-04 0
-1.252856e-02 5.218310e-04 0
-1.387429e-02 5.973969e-04 0
-2.171989e-02 6.900567e-04 0
-4.092961e-02 6.598489e-04 0
-6.581625e-02 4.536553e-04 0
-8.288839e-02 4.589634e-04 0
-9.509203e-02 1.069853e-03 0
-1.086261e-01 2.368557e-03 0
-1.227375e-01 4.415533e-03 0
-1.379643e-01 7.289066e-03 0
3.068405e+00 -8.881192e-02 0
0.000000e+00 0.000000e+00 0
-1.746309e-01 1.919487e-01 0
-3.550347e-01 1.966351e-01 0
-5.338938e-01 1.935138e-01 0
-7.085310e-01 1.877514e-01 0
-8.771626e-01 1.804179e-01 0
-1.038451e+00 1.719491e-01 0
-1.191379e+00 1.626379e-01 0
-1.335210e+00 1.527434e-01 0
-1.469469e+00 1.425129e-01 0
-1.593931e+00 1.321811e-01 0
-1.708599e+00 1.219631e-01 0
-1.813677e+00 1.120483e-01 0
-1.909540e+00 1.025947e-01 0
-1.996703e+00 9.372682e-02 0
-2.075782e+00 8.553513e-02 0
-2.147462e+00 7.807747e-02 0
-2.212468e+00 7.138215e-02 0
-2.271535e+00 6.545202e-02 0
-2.325389e+00 6.026895e-02 0
-2.374728e+00 5.579850e-02 0
-2.420208e+00 5.199432e-02 0
-2.462436e+00 4.880209e-02 0
-2.501961e+00 4.616283e-02 0
-2.539277e+00 4.401567e-02 0
-2.574816e+00 4.230008e-02 0
-2.608954e+00 4.095757e-02 0
-2.642014e+00 3.993291e-02 0
-2.674265e+00 3.917495e-02 0
-2.705935e+00 3.863709e-02 0
-2.737206e+00 3.827779e-02 0
-2.768226e+00 3.806079e-02 0
-2.799110e+00 3.795510e-02 0
-2.829947e+00 3.793472e-02 0
-2.860803e+00 3.797804e-02 0
-2.891726e+00 3.806718e-02 0
-2.922749e+00 3.818727e-02 0
-2.953895e+00 3.832603e-02 0
-2.985174e+00 3.847360e-02 0
-3.016590e+00 3.862250e-02 0
-3.048143e+00 3.876772e-02 0
-3.079827e+00 3.890650e-02 0
-3.111636e+00 3.903777e-02 0
-3.143561e+00 3.916122e-02 0
-3.175592e+00 3.927629e-02 0
-3.207719e+00 3.938132e-02 0
-3.239928e+00 3.947320e-02 0
-3.272206e+00 3.954749e-02 0
-3.304536e+00 3.959884e-02 0
-3.336900e+00 3.962124e-02 0
-3.369275e+00 3.960756e-02 0
-3.401631e+00 3.954786e-02 0
-3.433924e+00 3.942623e-02 0
-3.466089e+00 3.921582e-02 0
-3.498026e+00 3.887237e-02 0
-3.529587e+00 3.832627e-02 0
-3.560548e+00 3.747317e-02 0
-3.590581e+00 3.616266e-02 0
-3.619203e+00 3.418559e-02 0
-3.645708e+00 3.126446e-02 0
-3.669087e+00 2.705639e-02 0
-3.687960e+00 2.117769e-02 0
-3.700549e+00 1.324342e-02 0
-3.704711e+00 2.883543e-03 0
-3.697997e+00 -1.005929e-02 0
-3.678230e+00 -2.543730e-02 0
-3.643059e+00 -4.308176e-02 0
-3.590305e+00 -6.275293e-02 0
-3.518187e+00 -8.395309e-02 0
-3.425546e+00 -1.060065e-01 0
-3.312000e+00 -1.281875e-01 0
-3.177852e+00 -1.498448e-01 0
-3.023925e+00 -1.704175e-01 0
-2.851476e+00 -1.893644e-01 0
-2.662376e+00 -2.062177e-01 0
-2.458772e+00 -2.206405e-01 0
-2.243280e+00 -2.325861e-01 0
-2.018193e+00 -2.423712e-01 0
-1.784801e+00 -2.498219e-01 0
-1.545959e+00 -2.546768e-01 0
-1.303990e+00 -2.572345e-01 0
-1.061721e+00 -2.588682e-01 0
-8.175727e-01 -2.588028e-01 0
-5.745501e-01 -2.554492e-01 0
-3.324956e-01 -2.538561e-01 0
-9.856411e-02 -2.536473e-01 0
1.269791e-01 -2.511665e-01 0
3.444252e-01 -2.399400e-01 0
5.520754e-01 -2.221072e-01 0
7.495958e-01 -2.079086e-01 0
9.373557e-01 -1.964787e-01 0
1.115753e+00 -1.862376e-01 0
1.285100e+00 -1.765569e-01 0
1.445657e+00 -1.672231e-01 0
1.597665e+00 -1.581730e-01 0
1.741366e+00 -1.493964e-01 0
1.877017e+00 -1.409005e-01 0
2.004885e+00 -1.326963e-01 0
2.125250e+00 -1.247939e-01 0
2.238399e+00 -1.172009e-01 0
2.344626e+00 -1.099214e-01 0
2.444226e+00 -1.029564e-01 0
2.537494e+00 -9.630432e-02 0
2.624722e+00 -8.996120e-02 0
2.706197e+00 -8.392116e-02 0
2.782201e+00 -7.817687e-02 0
2.853007e+00 -7.271988e-02 0
2.918879e+00 -6.754096e-02 0
2.980073e+00 -6.263036e-02 0
3.036836e+00 -5.797805e-02 0
3.089405e+00 -5.357387e-02 0
3.138008e+00 -4.940773e-02 0
3.182862e+00 -4.546967e-02 0
3.224176e+00 -4.174999e-02 0
3.262151e+00 -3.823928e-02 0
3.296978e+00 -3.492847e-02 0
3.328840e+00 -3.180887e-02 0
3.357911e+00 -2.887215e-02 0
3.384360e+00 -2.611037e-02 0
3.408346e+00 -2.351596e-02 0
3.430022e+00 -2.108169e-02 0
3.449536e+00 -1.880068e-02 0
3.467028e+00 -1.666637e-02 0
3.482631e+00 -1.467245e-02 0
3.496474e+00 -1.281289e-02 0
3.508681e+00 -1.108190e-02 0
3.519369e+00 -9.473844e-03 0
3.528649e+00 -7.983285e-03 0
3.536629e+00 -6.604923e-03 0
3.543412e+00 -5.333627e-03 0
3.549094e+00 -4.164537e-03 0
3.553768e+00 -3.093390e-03 0
3.557522e+00 -2.117449e-03 0
3.560438e+00 -1.238765e-03 0
3.562594e+00 -4.728068e-04 0
3.564060e+00 1.761575e-04 0
3.564897e+00 7.435678e-04 0
3.565167e+00 1.265100e-03 0
3.564942e+00 1.733706e-03 0
3.564270e+00 2.098694e-03 0
3.563191e+00 2.137553e-03 0
3.563191e+00 2.028589e-03 0
0.000000e+00 0.000000e+00 0
-4.191405e-02 -2.508944e-02 0
-2.686493e-02 -2.194557e-03 0
-2.786391e-02 -1.347369e-03 0
-2.442639e-02 -8.051343e-04 0
-2.321915e-02 -4.792560e-04 0
-2.305180e-02 -1.843308e-04 0
-2.767341e-02 3.883628e-05 0
-4.199744e-02 1.264362e-04 0
-6.340026e-02 4.369589e-05 0
-7.900860e-02 1.010598e-04 0
-8.930985e-02 7.943206e-04 0
-1.004064e-01 2.444177e-03 0
-1.123306e-01 5.219363e-03 0
-1.249172e-01 9.271178e-03 0
-1.388228e-01 1.465143e-02 0
3.082017e+00 -1.751136e-01 0
0.000000e+00 0.000000e+00 0
-1.582327e-01 3.739725e-01 0
-3.177505e-01 3.784252e-01 0
-4.754622e-01 3.723510e-01 0
-6.294947e-01 3.615781e-01 0
-7.781175e-01 3.475176e-01 0
-9.199091e-01 3.309767e-01 0
-1.053773e+00 3.125876e-01 0
-1.178930e+00 2.929229e-01 0
-1.294894e+00 2.725214e-01 0
-1.401455e+00 2.518849e-01 0
-1.498644e+00 2.314666e-01 0
-1.586702e+00 2.116599e-01 0
-1.666038e+00 1.927899e-01 0
-1.737197e+00 1.751098e-01 0
-1.800814e+00 1.588009e-01 0
-1.857585e+00 1.439770e-01 0
-1.908230e+00 1.306914e-01 0
-1.953473e+00 1.189454e-01 0
-1.994016e+00 1.086985e-01 0
-2.030527e+00 9.987787e-02 0
-2.063625e+00 9.238725e-02 0
-2.093877e+00 8.611512e-02 0
-2.121793e+00 8.094120e-02 0
-2.147823e+00 7.674192e-02 0
-2.172359e+00 7.339503e-02 0
-2.195740e+00 7.078311e-02 0
-2.218250e+00 6.879603e-02 0
-2.240130e+00 6.733215e-02 0
-2.261575e+00 6.629917e-02 0
-2.282744e+00 6.561478e-02 0
-2.303762e+00 6.520700e-02 0
-2.324726e+00 6.501422e-02 0
-2.345706e+00 6.498472e-02 0
-2.366756e+00 6.507575e-02 0
-2.387911e+00 6.525241e-02 0
-2.409196e+00 6.548643e-02 0
-2.430626e+00 6.575510e-02 0
-2.452207e+00 6.604055e-02 0
-2.473942e+00 6.632928e-02 0
-2.495828e+00 6.661167e-02 0
-2.517858e+00 6.688140e-02 0
-2.540024e+00 6.713455e-02 0
-2.562317e+00 6.736843e-02 0
-2.584723e+00 6.758062e-02 0
-2.607232e+00 6.776824e-02 0
-2.629831e+00 6.792783e-02 0
-2.652509e+00 6.805543e-02 0
-2.675256e+00 6.814627e-02 0
-2.698061e+00 6.819333e-02 0
-2.720909e+00 6.818446e-02 0
-2.743780e+00 6.809795e-02 0
-2.766643e+00 6.789693e-02 0
-2.789450e+00 6.752264e-02 0
-2.812130e+00 6.688628e-02 0
-2.834583e+00 6.585783e-02 0
-2.856654e+00 6.424870e-02 0
-2.878107e+00 6.178441e-02 0
-2.898567e+00 5.806775e-02 0
-2.917445e+00 5.254545e-02 0
-2.933829e+00 4.450684e-02 0
-2.946377e+00 3.314127e-02 0
-2.953271e+00 1.764586e-02 0
-2.952298e+00 -2.686972e-03 0
-2.941100e+00 -2.789294e-02 0
-2.917412e+00 -5.786673e-02 0
-2.878646e+00 -9.261344e-02 0
-2.822423e+00 -1.315313e-01 0
-2.746852e+00 -1.735451e-01 0
-2.650760e+00 -2.171828e-01 0
-2.534088e+00 -2.609027e-01 0
-2.397481e+00 -3.034379e-01 0
-2.241960e+00 -3.437817e-01 0
-2.068667e+00 -3.808306e-01 0
-1.879738e+00 -4.136475e-01 0
-1.677028e+00 -4.414469e-01 0
-1.463637e+00 -4.640764e-01 0
-1.242353e+00 -4.829302e-01 0
-1.013700e+00 -4.974191e-01 0
-7.805322e-01 -5.064544e-01 0
-5.439413e-01 -5.100626e-01 0
-3.054581e-01 -5.123585e-01 0
-7.264482e-02 -5.131531e-01 0
1.556317e-01 -5.109473e-01 0
3.796801e-01 -5.013713e-01 0
5.938892e-01 -4.839794e-01 0
7.983871e-01 -4.666149e-01 0
9.925959e-01 -4.477676e-01 0
1.183380e+00 -4.267792e-01 0
1.368593e+00 -4.058281e-01 0
1.546280e+00 -3.856848e-01 0
1.715759e+00 -3.662905e-01 0
1.876889e+00 -3.474989e-01 0
2.029735e+00 -3.292341e-01 0
2.174454e+00 -3.114799e-01 0
2.311248e+00 -2.942511e-01 0
2.440350e+00 -2.775731e-01 0
2.562012e+00 -2.614716e-01 0
2.676503e+00 -2.459675e-01 0
2.784098e+00 -2.310755e-01 0
2.885081e+00 -2.168038e-01 0
2.979737e+00 -2.031539e-01 0
3.068349e+00 -1.901224e-01 0
3.151200e+00 -1.777011e-01 0
3.228564e+00 -1.658782e-01 0
3.300714e+00 -1.546390e-01 0
3.367910e+00 -1.439666e-01 0
3.430407e+00 -1.338428e-01 0
3.488452e+00 -1.242483e-01 0
3.542280e+00 -1.151631e-01 0
3.592119e+00 -1.065673e-01 0
3.638187e+00 -9.844087e-02 0
3.680694e+00 -9.076428e-02 0
3.719840e+00 -8.351835e-02 0
3.755817e+00 -7.668455e-02 0
3.788810e+00 -7.024502e-02 0
3.818992e+00 -6.418263e-02 0
3.846534e+00 -5.848096e-02 0
3.871594e+00 -5.312436e-02 0
3.894329e+00 -4.809788e-02 0
3.914885e+00 -4.338725e-02 0
3.933402e+00 -3.897887e-02 0
3.950017e+00 -3.485970e-02 0
3.964858e+00 -3.101729e-02 0
3.978050e+00 -2.743964e-02 0
3.989710e+00 -2.411519e-02 0
3.999951e+00 -2.103274e-02 0
4.008883e+00 -1.818139e-02 0
4.016609e+00 -1.555049e-02 0
4.023226e+00 -1.312957e-02 0
4.028828e+00 -1.090837e-02 0
4.033503e+00 -8.876847e-03 0
4.037335e+00 -7.025218e-03 0
4.040398e+00 -5.343235e-03 0
4.042758e+00 -3.815576e-03 0
4.044456e+00 -2.424936e-03 0
4.045533e+00 -1.165507e-03 0
4.046075e+00 -4.774532e-05 0
4.046154e+00 9.443361e-04 0
4.045796e+00 1.844333e-03 0
4.044969e+00 3.041685e-03 0
4.044969e+00 3.809875e-03 0
0.000000e+00 0.000000e+00 0
-4.639680e-02 -3.071493e-02 0
-3.107331e-02 -5.729019e-03 0
-3.259330e-02 -5.120446e-03 0
-2.954275e-02 -4.273086e-03 0
-2.888658e-02 -3.872352e-03 0
-2.999587e-02 -3.556368e-03 0
-3.671312e-02 -3.448342e-03 0
-5.101293e-02 -3.214687e-03 0
-6.740041e-02 -2.417889e-03 0
-7.933850e-02 -1.002555e-03 0
-8.961419e-02 9.736895e-04 0
-1.010148e-01 3.842407e-03 0
-1.130434e-01 8.023424e-03 0
-1.257590e-01 1.376396e-02 0
-1.395499e-01 2.103019e-02 0
3.095922e+00 -2.474446e-01 0
0.000000e+00 0.000000e+00 0
-1.260779e-01 5.266475e-01 0
-2.544145e-01 5.307841e-01 0
-3.813892e-01 5.218851e-01 0
-5.053136e-01 5.065490e-01 0
-6.245807e-01 4.863217e-01 0
-7.378396e-01 4.623074e-01 0
-8.440505e-01 4.354736e-01 0
-9.424906e-01 4.067242e-01 0
-1.032737e+00 3.769066e-01 0
-1.114635e+00 3.467985e-01 0
-1.188267e+00 3.170906e-01 0
-1.253907e+00 2.883713e-01 0
-1.311985e+00 2.611176e-01 0
-1.363045e+00 2.356915e-01 0
-1.407704e+00 2.123438e-01 0
-1.446622e+00 1.912225e-01 0
-1.480472e+00 1.723852e-01 0
-1.509913e+00 1.558145e-01 0
-1.535576e+00 1.414333e-01 0
-1.558050e+00 1.291205e-01 0
-1.577874e+00 1.187241e-01 0
-1.595535e+00 1.100730e-01 0
-1.611464e+00 1.029861e-01 0
-1.626037e+00 9.727960e-02 0
-1.639577e+00 9.277342e-02 0
-1.652354e+00 8.929675e-02 0
-1.664596e+00 8.669110e-02 0
-1.676488e+00 8.481106e-02 0
-1.688181e+00 8.352498e-02 0
-1.699791e+00 8.271585e-02 0
-1.711405e+00 8.228183e-02 0
-1.723088e+00 8.213624e-02 0
-1.734884e+00 8.220689e-02 0
-1.746823e+00 8.243472e-02 0
-1.758921e+00 8.277211e-02 0
-1.771189e+00 8.318112e-02 0
-1.783629e+00 8.363173e-02 0
-1.796238e+00 8.410055e-02 0
-1.809011e+00 8.456975e-02 0
-1.821939e+00 8.502629e-02 0
-1.835012e+00 8.546117e-02 0
-1.848216e+00 8.586857e-02 0
-1.861539e+00 8.624485e-02 0
-1.874967e+00 8.658768e-02 0
-1.888487e+00 8.689528e-02 0
-1.902089e+00 8.716564e-02 0
-1.915765e+00 8.739578e-02 0
-1.929506e+00 8.758040e-02 0
-1.943306e+00 8.770966e-02 0
-1.957154e+00 8.776623e-02 0
-1.971039e+00 8.772165e-02 0
-1.984946e+00 8.753176e-02 0
-1.998860e+00 8.712970e-02 0
-2.012764e+00 8.641356e-02 0
-2.026632e+00 8.522543e-02 0
-2.040428e+00 8.331885e-02 0
-2.054081e+00 8.031145e-02 0
-2.067453e+00 7.562237e-02 0
-2.080246e+00 6.840702e-02 0
-2.091797e+00 5.753162e-02 0
-2.100803e+00 4.165730e-02 0
-2.105172e+00 1.948042e-02 0
-2.102264e+00 -9.936434e-03 0
-2.089770e+00 -4.680541e-02 0
-2.064966e+00 -9.122171e-02 0
-2.024894e+00 -1.431363e-01 0
-1.966918e+00 -2.015750e-01 0
-1.889070e+00 -2.647711e-01 0
-1.789990e+00 -3.301176e-01 0
-1.670443e+00 -3.949746e-01 0
-1.531755e+00 -4.575530e-01 0
-1.375499e+00 -5.167679e-01 0
-1.202982e+00 -5.709045e-01 0
-1.016820e+00 -6.187438e-01 0
-8.180838e-01 -6.589334e-01 0
-6.093716e-01 -6.904431e-01 0
-3.919248e-01 -7.163046e-01 0
-1.728839e-01 -7.362727e-01 0
4.697781e-02 -7.494886e-01 0
2.669471e-01 -7.576456e-01 0
4.864306e-01 -7.553003e-01 0
6.996941e-01 -7.444838e-01 0
9.069357e-01 -7.318979e-01 0
1.105706e+00 -7.154870e-01 0
1.300931e+00 -6.946851e-01 0
1.491082e+00 -6.711375e-01 0
1.674524e+00 -6.454660e-01 0
1.851930e+00 -6.181575e-01 0
2.022983e+00 -5.901629e-01 0
2.187011e+00 -5.621601e-01 0
2.343565e+00 -5.344787e-01 0
2.492461e+00 -5.072782e-01 0
2.633687e+00 -4.806583e-01 0
2.767340e+00 -4.546999e-01 0
2.893585e+00 -4.294732e-01 0
3.012625e+00 -4.050384e-01 0
3.124691e+00 -3.814434e-01 0
3.230032e+00 -3.587239e-01 0
3.328908e+00 -3.369033e-01 0
3.421583e+00 -3.159940e-01 0
3.508326e+00 -2.959987e-01 0
3.589404e+00 -2.769119e-01 0
3.665079e+00 -2.587213e-01 0
3.735611e+00 -2.414093e-01 0
3.801252e+00 -2.249539e-01 0
3.862248e+00 -2.093304e-01 0
3.918836e+00 -1.945116e-01 0
3.971246e+00 -1.804692e-01 0
4.019699e+00 -1.671739e-01 0
4.064407e+00 -1.545962e-01 0
4.105574e+00 -1.427071e-01 0
4.143395e+00 -1.314777e-01 0
4.178058e+00 -1.208800e-01 0
4.209742e+00 -1.108870e-01 0
4.238618e+00 -1.014725e-01 0
4.264852e+00 -9.261141e-02 0
4.288600e+00 -8.427986e-02 0
4.310015e+00 -7.645495e-02 0
4.329239e+00 -6.911486e-02 0
4.346412e+00 -6.223877e-02 0
4.361666e+00 -5.580681e-02 0
4.375129e+00 -4.980000e-02 0
4.386921e+00 -4.420012e-02 0
4.397161e+00 -3.898970e-02 0
4.405960e+00 -3.415186e-02 0
4.413426e+00 -2.967023e-02 0
4.419660e+00 -2.552886e-02 0
4.424761e+00 -2.171208e-02 0
4.428822e+00 -1.820441e-02 0
4.431934e+00 -1.499036e-02 0
4.434179e+00 -1.205434e-02 0
4.435637e+00 -9.380273e-03 0
4.436382e+00 -6.950973e-03 0
4.436482e+00 -4.746651e-03 0
4.436004e+00 -2.747182e-03 0
4.435055e+00 -9.616233e-04 0
4.433704e+00 6.109646e-04 0
4.431978e+00 2.027169e-03 0
4.429906e+00 3.347730e-03 0
4.427515e+00 5.114864e-03 0
4.427515e+00 6.239756e-03 0
0.000000e+00 0.000000e+00 0
-3.907579e-02 -2.771302e-02 0
-2.825266e-02 -7.910188e-03 0
-2.918816e-02 -7.254394e-03 0
-2.712002e-02 -6.534501e-03 0
-2.685224e-02 -6.349043e-03 0
-2.830374e-02 -6.339100e-03 0
-3.507920e-02 -6.646825e-03 0
-4.938268e-02 -6.518660e-03 0
-6.615690e-02 -4.947703e-03 0
-7.876560e-02 -2.107141e-03 0
-8.965118e-02 1.235841e-03 0
-1.015565e-01 5.240941e-03 0
-1.139575e-01 1.052712e-02 0
-1.268024e-01 1.746076e-02 0
-1.403630e-01 2.594959e-02 0
3.111273e+00 -3.014804e-01 0
0.000000e+00 0.000000e+00 0
-8.850391e-02 6.419575e-01 0
-1.814336e-01 6.473537e-01 0
-2.742225e-01 6.366321e-01 0
-3.650806e-01 6.177405e-01 0
-4.524678e-01 5.924456e-01 0
-5.351389e-01 5.621522e-01 0
-6.121590e-01 5.281541e-01 0
-6.828936e-01 4.916731e-01 0
-7.469819e-01 4.538476e-01 0
-8.043019e-01 4.157105e-01 0
-8.549330e-01 3.781670e-01 0
-8.991179e-01 3.419775e-01 0
-9.372258e-01 3.077491e-01 0
-9.697171e-01 2.759340e-01 0
-9.971111e-01 2.468368e-01 0
-1.019958e+00 2.206271e-01 0
-1.038812e+00 1.973585e-01 0
-1.054218e+00 1.769890e-01 0
-1.066692e+00 1.594032e-01 0
-1.076715e+00 1.444324e-01 0
-1.084730e+00 1.318722e-01 0
-1.091134e+00 1.214971e-01 0
-1.096284e+00 1.130710e-01 0
-1.100489e+00 1.063552e-01 0
-1.104011e+00 1.011166e-01 0
-1.107062e+00 9.713707e-02 0
-1.109821e+00 9.421774e-02 0
-1.112435e+00 9.217574e-02 0
-1.115018e+00 9.084498e-02 0
-1.117652e+00 9.007809e-02 0
-1.120393e+00 8.974765e-02 0
-1.123274e+00 8.974635e-02 0
-1.126314e+00 8.998603e-02 0
-1.129516e+00 9.039571e-02 0
-1.132879e+00 9.091916e-02 0