<?xml version="1.0"?>
<VTKFile type="StructuredGrid">
<StructuredGrid WholeExtent="0 18 0 2 0 0 ">
<Piece Extent="0 18 0 2 0 0 ">
<Points>
<DataArray type="Float64" format="ascii" NumberOfComponents="3">
0.000000e+00 0.000000e+00 0.000000e+00
2.777778e-01 0.000000e+00 0.000000e+00
5.555556e-01 0.000000e+00 0.000000e+00
8.333333e-01 0.000000e+00 0.000000e+00
1.111111e+00 0.000000e+00 0.000000e+00
1.388889e+00 0.000000e+00 0.000000e+00
1.666667e+00 0.000000e+00 0.000000e+00
1.944444e+00 0.000000e+00 0.000000e+00
2.222222e+00 0.000000e+00 0.000000e+00
2.500000e+00 0.000000e+00 0.000000e+00
2.777778e+00 0.000000e+00 0.000000e+00
3.055556e+00 0.000000e+00 0.000000e+00
3.333333e+00 0.000000e+00 0.000000e+00
3.611111e+00 0.000000e+00 0.000000e+00
3.888889e+00 0.000000e+00 0.000000e+00
4.166667e+00 0.000000e+00 0.000000e+00
4.444444e+00 0.000000e+00 0.000000e+00
4.722222e+00 0.000000e+00 0.000000e+00
5.000000e+00 0.000000e+00 0.000000e+00
0.000000e+00 5.000000e-01 0.000000e+00
2.777778e-01 5.000000e-01 0.000000e+00
5.555556e-01 5.000000e-01 0.000000e+00
8.333333e-01 5.000000e-01 0.000000e+00
1.111111e+00 5.000000e-01 0.000000e+00
1.388889e+00 5.000000e-01 0.000000e+00
1.666667e+00 5.000000e-01 0.000000e+00
1.944444e+00 5.000000e-01 0.000000e+00
2.222222e+00 5.000000e-01 0.000000e+00
2.500000e+00 5.000000e-01 0.000000e+00
2.777778e+00 5.000000e-01 0.000000e+00
3.055556e+00 5.000000e-01 0.000000e+00
3.333333e+00 5.000000e-01 0.000000e+00
3.611111e+00 5.000000e-01 0.000000e+00
3.888889e+00 5.000000e-01 0.000000e+00
4.166667e+00 5.000000e-01 0.000000e+00
4.444444e+00 5.000000e-01 0.000000e+00
4.722222e+00 5.000000e-01 0.000000e+00
5.000000e+00 5.000000e-01 0.000000e+00
0.000000e+00 1.000000e+00 0.000000e+00
2.777778e-01 1.000000e+00 0.000000e+00
5.555556e-01 1.000000e+00 0.000000e+00
8.333333e-01 1.000000e+00 0.000000e+00
1.111111e+00 1.000000e+00 0.000000e+00
1.388889e+00 1.000000e+00 0.000000e+00
1.666667e+00 1.000000e+00 0.000000e+00
1.944444e+00 1.000000e+00 0.000000e+00
2.222222e+00 1.000000e+00 0.000000e+00
2.500000e+00 1.000000e+00 0.000000e+00
2.777778e+00 1.000000e+00 0.000000e+00
3.055556e+00 1.000000e+00 0.000000e+00
3.333333e+00 1.000000e+00 0.000000e+00
3.611111e+00 1.000000e+00 0.000000e+00
3.888889e+00 1.000000e+00 0.000000e+00
4.166667e+00 1.000000e+00 0.000000e+00
4.444444e+00 1.000000e+00 0.000000e+00
4.722222e+00 1.000000e+00 0.000000e+00
5.000000e+00 1.000000e+00 0.000000e+00
</DataArray>
</Points>
<PointData>
<DataArray Name="Velocity" type="Float64" format="ascii" NumberOfComponents="3">
0.000000e+00 0.000000e+00 0
-1.590255e-02 0.000000e+00 0
-2.226492e-02 0.000000e+00 0
-7.012744e-03 0.000000e+00 0
0.000000e+00 0.000000e+00 0
0.000000e+00 0.000000e+00 0
0.000000e+00 0.000000e+00 0
-7.651409e-19 0.000000e+00 0
0.000000e+00 0.000000e+00 0
0.000000e+00 0.000000e+00 0
0.000000e+00 0.000000e+00 0
0.000000e+00 0.000000e+00 0
0.000000e+00 0.000000e+00 0
0.000000e+00 0.000000e+00 0
1.207608e-18 0.000000e+00 0
0.000000e+00 0.000000e+00 0
0.000000e+00 0.000000e+00 0
0.000000e+00 0.000000e+00 0
0.000000e+00 0.000000e+00 0
1.951139e-01 0.000000e+00 0
0.000000e+00 0.000000e+00 0
0.000000e+00 0.000000e+00 0
1.929899e-01 -2.230674e-02 0
1.999957e-01 -4.992869e-02 0
1.999853e-01 -5.295162e-02 0
1.999926e-01 -4.612539e-02 0
2.000077e-01 -3.706114e-02 0
2.000045e-01 -2.873448e-02 0
1.999919e-01 -2.197217e-02 0
1.999879e-01 -1.675589e-02 0
1.999859e-01 -1.281669e-02 0
1.999872e-01 -9.860048e-03 0
1.999897e-01 -7.626456e-03 0
1.999936e-01 -5.900088e-03 0
1.999910e-01 -4.494803e-03 0
1.999911e-01 -3.223754e-03 0
1.999895e-01 -1.846343e-03 0
1.999895e-01 -1.095245e-03 0
0.000000e+00 0.000000e+00 0
0.000000e+00 0.000000e+00 0
0.000000e+00 0.000000e+00 0
0.000000e+00 0.000000e+00 0
0.000000e+00 0.000000e+00 0
0.000000e+00 0.000000e+00 0
0.000000e+00 0.000000e+00 0
-4.932487e-18 0.000000e+00 0
0.000000e+00 0.000000e+00 0
0.000000e+00 0.000000e+00 0
0.000000e+00 0.000000e+00 0
0.000000e+00 0.000000e+00 0
0.000000e+00 0.000000e+00 0
0.000000e+00 0.000000e+00 0
6.774668e-18 0.000000e+00 0
0.000000e+00 0.000000e+00 0
0.000000e+00 0.000000e+00 0
0.000000e+00 0.000000e+00 0
0.000000e+00 0.000000e+00 0
</DataArray>
<DataArray Name="Pressure" type="Float64" format="ascii">
9.115145e-02 8.231957e-02 5.722047e-02 3.316987e-02 3.029255e-02 3.859537e-02 4.321328e-02 4.413471e-02 4.262011e-02 3.970182e-02 3.601157e-02 3.189530e-02 2.754016e-02 2.305364e-02 1.850083e-02 1.392550e-02 9.351608e-03 4.824654e-03 6.458630e-04 
9.557812e-02 8.233107e-02 6.112692e-02 4.214055e-02 3.738287e-02 4.106024e-02 4.347843e-02 4.359416e-02 4.189947e-02 3.903525e-02 3.546025e-02 3.146127e-02 2.721165e-02 2.281179e-02 1.832061e-02 1.377705e-02 9.202709e-03 4.606328e-03 1.626303e-17 
9.779145e-02 8.233107e-02 6.502289e-02 5.110745e-02 4.447320e-02 4.352511e-02 4.374358e-02 4.305361e-02 4.117883e-02 3.836868e-02 3.490893e-02 3.102724e-02 2.688313e-02 2.256993e-02 1.814039e-02 1.362860e-02 9.053811e-03 4.388001e-03 5.060081e-04 
</DataArray>
<DataArray Name="Stream" type="Float64" format="ascii">
0.000000e+00 0.000000e+00 0.000000e+00 0.000000e+00 0.000000e+00 0.000000e+00 0.000000e+00 0.000000e+00 0.000000e+00 0.000000e+00 0.000000e+00 0.000000e+00 0.000000e+00 0.000000e+00 0.000000e+00 0.000000e+00 0.000000e+00 0.000000e+00 0.000000e+00 
0.000000e+00 0.000000e+00 0.000000e+00 0.000000e+00 1.942233e-02 3.479442e-02 4.887777e-02 6.042883e-02 6.945103e-02 7.635903e-02 8.162906e-02 8.565942e-02 8.875947e-02 9.115318e-02 9.300683e-02 9.442982e-02 9.549836e-02 9.621746e-02 9.621746e-02 
0.000000e+00 1.951139e-01 1.951323e-01 1.929899e-01 1.999957e-01 1.999853e-01 1.999926e-01 2.000077e-01 2.000045e-01 1.999919e-01 1.999879e-01 1.999859e-01 1.999872e-01 1.999897e-01 1.999936e-01 1.999910e-01 1.999911e-01 1.999895e-01 1.999895e-01 
</DataArray>
<DataArray Name="Vorticity" type="Float64" format="ascii">
0.000000e+00 -1.497301e+00 -1.471999e+00 2.805098e-02 1.553786e-01 2.783553e-01 3.910222e-01 4.834307e-01 5.556082e-01 6.108723e-01 6.530325e-01 6.852753e-01 7.100758e-01 7.292254e-01 7.440547e-01 7.554386e-01 7.639869e-01 7.697397e-01 7.697397e-01 
7.804554e-01 1.560911e+00 1.561059e+00 9.325683e-01 6.828737e-01 5.050815e-01 3.763036e-01 2.839819e-01 2.170760e-01 1.677405e-01 1.307168e-01 1.025085e-01 8.074510e-02 6.377950e-02 5.044367e-02 3.988341e-02 3.146816e-02 2.481037e-02 3.021828e-02 
-1.560911e+00 -1.560911e+00 -1.561059e+00 -1.543920e+00 -1.444587e+00 -1.321527e+00 -1.208918e+00 -1.116631e+00 -1.044428e+00 -9.890628e-01 -9.468709e-01 -9.146121e-01 -8.898219e-01 -8.706922e-01 -8.558939e-01 -8.444896e-01 -8.359421e-01 -8.301762e-01 -8.301762e-01 
</DataArray>
</PointData>
</Piece>
</StructuredGrid>
</VTKFile>
