<?xml version="1.0"?>
<VTKFile type="StructuredGrid">
<StructuredGrid WholeExtent="0 18 0 2 0 0 ">
<Piece Extent="0 18 0 2 0 0 ">
<Points>
<DataArray type="Float64" format="ascii" NumberOfComponents="3">
0.000000e+00 0.000000e+00 0.000000e+00
2.777778e-01 0.000000e+00 0.000000e+00
5.555556e-01 0.000000e+00 0.000000e+00
8.333333e-01 0.000000e+00 0.000000e+00
1.111111e+00 0.000000e+00 0.000000e+00
1.388889e+00 0.000000e+00 0.000000e+00
1.666667e+00 0.000000e+00 0.000000e+00
1.944444e+00 0.000000e+00 0.000000e+00
2.222222e+00 0.000000e+00 0.000000e+00
2.500000e+00 0.000000e+00 0.000000e+00
2.777778e+00 0.000000e+00 0.000000e+00
3.055556e+00 0.000000e+00 0.000000e+00
3.333333e+00 0.000000e+00 0.000000e+00
3.611111e+00 0.000000e+00 0.000000e+00
3.888889e+00 0.000000e+00 0.000000e+00
4.166667e+00 0.000000e+00 0.000000e+00
4.444444e+00 0.000000e+00 0.000000e+00
4.722222e+00 0.000000e+00 0.000000e+00
5.000000e+00 0.000000e+00 0.000000e+00
0.000000e+00 5.000000e-01 0.000000e+00
2.777778e-01 5.000000e-01 0.000000e+00
5.555556e-01 5.000000e-01 0.000000e+00
8.333333e-01 5.000000e-01 0.000000e+00
1.111111e+00 5.000000e-01 0.000000e+00
1.388889e+00 5.000000e-01 0.000000e+00
1.666667e+00 5.000000e-01 0.000000e+00
1.944444e+00 5.000000e-01 0.000000e+00
2.222222e+00 5.000000e-01 0.000000e+00
2.500000e+00 5.000000e-01 0.000000e+00
2.777778e+00 5.000000e-01 0.000000e+00
3.055556e+00 5.000000e-01 0.000000e+00
3.333333e+00 5.000000e-01 0.000000e+00
3.611111e+00 5.000000e-01 0.000000e+00
3.888889e+00 5.000000e-01 0.000000e+00
4.166667e+00 5.000000e-01 0.000000e+00
4.444444e+00 5.000000e-01 0.000000e+00
4.722222e+00 5.000000e-01 0.000000e+00
5.000000e+00 5.000000e-01 0.000000e+00
0.000000e+00 1.000000e+00 0.000000e+00
2.777778e-01 1.000000e+00 0.000000e+00
5.555556e-01 1.000000e+00 0.000000e+00
8.333333e-01 1.000000e+00 0.000000e+00
1.111111e+00 1.000000e+00 0.000000e+00
1.388889e+00 1.000000e+00 0.000000e+00
1.666667e+00 1.000000e+00 0.000000e+00
1.944444e+00 1.000000e+00 0.000000e+00
2.222222e+00 1.000000e+00 0.000000e+00
2.500000e+00 1.000000e+00 0.000000e+00
2.777778e+00 1.000000e+00 0.000000e+00
3.055556e+00 1.000000e+00 0.000000e+00
3.333333e+00 1.000000e+00 0.000000e+00
3.611111e+00 1.000000e+00 0.000000e+00
3.888889e+00 1.000000e+00 0.000000e+00
4.166667e+00 1.000000e+00 0.000000e+00
4.444444e+00 1.000000e+00 0.000000e+00
4.722222e+00 1.000000e+00 0.000000e+00
5.000000e+00 1.000000e+00 0.000000e+00
</DataArray>
</Points>
<PointData>
<DataArray Name="Velocity" type="Float64" format="ascii" NumberOfComponents="3">
0.000000e+00 0.000000e+00 0
-1.049085e+33 0.000000e+00 0
-1.608124e+33 0.000000e+00 0
-6.721423e+32 0.000000e+00 0
0.000000e+00 0.000000e+00 0
0.000000e+00 0.000000e+00 0
0.000000e+00 0.000000e+00 0
8.813502e+16 0.000000e+00 0
0.000000e+00 0.000000e+00 0
0.000000e+00 0.000000e+00 0
0.000000e+00 0.000000e+00 0
0.000000e+00 0.000000e+00 0
0.000000e+00 0.000000e+00 0
0.000000e+00 0.000000e+00 0
8.349551e+16 0.000000e+00 0
0.000000e+00 0.000000e+00 0
0.000000e+00 0.000000e+00 0
0.000000e+00 0.000000e+00 0
0.000000e+00 0.000000e+00 0
6.123912e+34 0.000000e+00 0
0.000000e+00 0.000000e+00 0
0.000000e+00 0.000000e+00 0
6.103166e+34 -2.202909e+33 0
6.170381e+34 -5.402161e+33 0
6.170381e+34 -6.669070e+33 0
6.170381e+34 -6.832160e+33 0
6.170381e+34 -6.452516e+33 0
6.170381e+34 -5.860314e+33 0
6.170381e+34 -5.228802e+33 0
6.170381e+34 -4.636642e+33 0
6.170381e+34 -4.110530e+33 0
6.170381e+34 -3.650596e+33 0
6.170381e+34 -3.243569e+33 0
6.170381e+34 -2.867814e+33 0
6.170381e+34 -2.492086e+33 0
6.170381e+34 -2.077510e+33 0
6.170381e+34 -1.378072e+33 0
6.170381e+34 -9.007135e+32 0
0.000000e+00 0.000000e+00 0
0.000000e+00 0.000000e+00 0
0.000000e+00 0.000000e+00 0
0.000000e+00 0.000000e+00 0
0.000000e+00 0.000000e+00 0
0.000000e+00 0.000000e+00 0
0.000000e+00 0.000000e+00 0
-5.285441e+17 0.000000e+00 0
0.000000e+00 0.000000e+00 0
0.000000e+00 0.000000e+00 0
0.000000e+00 0.000000e+00 0
0.000000e+00 0.000000e+00 0
0.000000e+00 0.000000e+00 0
0.000000e+00 0.000000e+00 0
3.461823e+18 0.000000e+00 0
0.000000e+00 0.000000e+00 0
0.000000e+00 0.000000e+00 0
0.000000e+00 0.000000e+00 0
0.000000e+00 0.000000e+00 0
</DataArray>
<DataArray Name="Pressure" type="Float64" format="ascii">
-1.273895e+68 -2.547790e+68 -6.590592e+68 -1.099185e+69 -1.109162e+69 -7.856052e+68 -4.658558e+68 -1.996011e+68 1.627671e+66 1.427913e+68 2.340241e+68 2.855549e+68 3.059632e+68 3.019031e+68 2.783429e+68 2.389010e+68 1.862361e+68 1.248439e+68 2.320083e+67 
-6.369475e+67 -2.547790e+68 -5.774416e+68 -8.942762e+68 -9.229482e+68 -6.971237e+68 -4.353175e+68 -1.995999e+68 -1.221602e+67 1.242842e+68 2.153333e+68 2.684629e+68 2.907937e+68 2.881779e+68 2.650273e+68 2.243328e+68 1.676834e+68 9.032083e+67 3.204547e+53 
-3.184737e+67 -2.547790e+68 -4.958239e+68 -6.893670e+68 -7.367342e+68 -6.086423e+68 -4.047793e+68 -1.995986e+68 -2.605970e+67 1.057771e+68 1.966426e+68 2.513710e+68 2.756242e+68 2.744527e+68 2.517118e+68 2.097646e+68 1.491308e+68 5.579772e+67 -6.206232e+65 
</DataArray>
<DataArray Name="Stream" type="Float64" format="ascii">
0.000000e+00 0.000000e+00 0.000000e+00 0.000000e+00 0.000000e+00 0.000000e+00 0.000000e+00 0.000000e+00 0.000000e+00 0.000000e+00 0.000000e+00 0.000000e+00 0.000000e+00 0.000000e+00 0.000000e+00 0.000000e+00 0.000000e+00 0.000000e+00 0.000000e+00 
0.000000e+00 0.000000e+00 0.000000e+00 0.000000e+00 1.895981e+33 3.673343e+33 5.601019e+33 7.468987e+33 9.185751e+33 1.072472e+34 1.209064e+34 1.330063e+34 1.437427e+34 1.532874e+34 1.617625e+34 1.692197e+34 1.756074e+34 1.807614e+34 1.807614e+34 
0.000000e+00 6.123912e+34 6.123912e+34 6.103166e+34 6.170381e+34 6.170381e+34 6.170381e+34 6.170381e+34 6.170381e+34 6.170381e+34 6.170381e+34 6.170381e+34 6.170381e+34 6.170381e+34 6.170381e+34 6.170381e+34 6.170381e+34 6.170381e+34 6.170381e+34 
</DataArray>
<DataArray Name="Vorticity" type="Float64" format="ascii">
0.000000e+00 -4.857166e+35 -4.834804e+35 2.688569e+33 1.516785e+34 2.938674e+34 4.480816e+34 5.975190e+34 7.348601e+34 8.579774e+34 9.672512e+34 1.064050e+35 1.149941e+35 1.226299e+35 1.294100e+35 1.353757e+35 1.404859e+35 1.446091e+35 1.446091e+35 
2.449565e+35 4.899129e+35 4.899129e+35 2.599876e+35 2.388210e+35 2.193766e+35 2.012333e+35 1.851037e+35 1.710250e+35 1.587748e+35 1.480692e+35 1.386431e+35 1.302767e+35 1.227991e+35 1.160860e+35 1.100535e+35 1.047303e+35 9.876912e+34 1.022061e+35 
-4.899129e+35 -4.899129e+35 -4.899129e+35 -4.882533e+35 -4.784626e+35 -4.642437e+35 -4.488223e+35 -4.338786e+35 -4.201445e+35 -4.078327e+35 -3.969053e+35 -3.872254e+35 -3.786363e+35 -3.710005e+35 -3.642204e+35 -3.582547e+35 -3.531445e+35 -3.490213e+35 -3.490213e+35 
</DataArray>
</PointData>
</Piece>
</StructuredGrid>
</VTKFile>
