<?xml version="1.0"?>
<VTKFile type="StructuredGrid">
<StructuredGrid WholeExtent="0 318 0 62 0 0 ">
<Piece Extent="0 318 0 62 0 0 ">
<Points>
<DataArray type="Float64" format="ascii" NumberOfComponents="3">
0.000000e+00 0.000000e+00 0.000000e+00
1.572327e-02 0.000000e+00 0.000000e+00
3.144654e-02 0.000000e+00 0.000000e+00
4.716981e-02 0.000000e+00 0.000000e+00
6.289308e-02 0.000000e+00 0.000000e+00
7.861635e-02 0.000000e+00 0.000000e+00
9.433962e-02 0.000000e+00 0.000000e+00
1.100629e-01 0.000000e+00 0.000000e+00
1.257862e-01 0.000000e+00 0.000000e+00
1.415094e-01 0.000000e+00 0.000000e+00
1.572327e-01 0.000000e+00 0.000000e+00
1.729560e-01 0.000000e+00 0.000000e+00
1.886792e-01 0.000000e+00 0.000000e+00
2.044025e-01 0.000000e+00 0.000000e+00
2.201258e-01 0.000000e+00 0.000000e+00
2.358491e-01 0.000000e+00 0.000000e+00
2.515723e-01 0.000000e+00 0.000000e+00
2.672956e-01 0.000000e+00 0.000000e+00
2.830189e-01 0.000000e+00 0.000000e+00
2.987421e-01 0.000000e+00 0.000000e+00
3.144654e-01 0.000000e+00 0.000000e+00
3.301887e-01 0.000000e+00 0.000000e+00
3.459119e-01 0.000000e+00 0.000000e+00
3.616352e-01 0.000000e+00 0.000000e+00
3.773585e-01 0.000000e+00 0.000000e+00
3.930818e-01 0.000000e+00 0.000000e+00
4.088050e-01 0.000000e+00 0.000000e+00
4.245283e-01 0.000000e+00 0.000000e+00
4.402516e-01 0.000000e+00 0.000000e+00
4.559748e-01 0.000000e+00 0.000000e+00
4.716981e-01 0.000000e+00 0.000000e+00
4.874214e-01 0.000000e+00 0.000000e+00
5.031447e-01 0.000000e+00 0.000000e+00
5.188679e-01 0.000000e+00 0.000000e+00
5.345912e-01 0.000000e+00 0.000000e+00
5.503145e-01 0.000000e+00 0.000000e+00
5.660377e-01 0.000000e+00 0.000000e+00
5.817610e-01 0.000000e+00 0.000000e+00
5.974843e-01 0.000000e+00 0.000000e+00
6.132075e-01 0.000000e+00 0.000000e+00
6.289308e-01 0.000000e+00 0.000000e+00
6.446541e-01 0.000000e+00 0.000000e+00
6.603774e-01 0.000000e+00 0.000000e+00
6.761006e-01 0.000000e+00 0.000000e+00
6.918239e-01 0.000000e+00 0.000000e+00
7.075472e-01 0.000000e+00 0.000000e+00
7.232704e-01 0.000000e+00 0.000000e+00
7.389937e-01 0.000000e+00 0.000000e+00
7.547170e-01 0.000000e+00 0.000000e+00
7.704403e-01 0.000000e+00 0.000000e+00
7.861635e-01 0.000000e+00 0.000000e+00
8.018868e-01 0.000000e+00 0.000000e+00
8.176101e-01 0.000000e+00 0.000000e+00
8.333333e-01 0.000000e+00 0.000000e+00
8.490566e-01 0.000000e+00 0.000000e+00
8.647799e-01 0.000000e+00 0.000000e+00
8.805031e-01 0.000000e+00 0.000000e+00
8.962264e-01 0.000000e+00 0.000000e+00
9.119497e-01 0.000000e+00 0.000000e+00
9.276730e-01 0.000000e+00 0.000000e+00
9.433962e-01 0.000000e+00 0.000000e+00
9.591195e-01 0.000000e+00 0.000000e+00
9.748428e-01 0.000000e+00 0.000000e+00
9.905660e-01 0.000000e+00 0.000000e+00
1.006289e+00 0.000000e+00 0.000000e+00
1.022013e+00 0.000000e+00 0.000000e+00
1.037736e+00 0.000000e+00 0.000000e+00
1.053459e+00 0.000000e+00 0.000000e+00
1.069182e+00 0.000000e+00 0.000000e+00
1.084906e+00 0.000000e+00 0.000000e+00
1.100629e+00 0.000000e+00 0.000000e+00
1.116352e+00 0.000000e+00 0.000000e+00
1.132075e+00 0.000000e+00 0.000000e+00
1.147799e+00 0.000000e+00 0.000000e+00
1.163522e+00 0.000000e+00 0.000000e+00
1.179245e+00 0.000000e+00 0.000000e+00
1.194969e+00 0.000000e+00 0.000000e+00
1.210692e+00 0.000000e+00 0.000000e+00
1.226415e+00 0.000000e+00 0.000000e+00
1.242138e+00 0.000000e+00 0.000000e+00
1.257862e+00 0.000000e+00 0.000000e+00
1.273585e+00 0.000000e+00 0.000000e+00
1.289308e+00 0.000000e+00 0.000000e+00
1.305031e+00 0.000000e+00 0.000000e+00
1.320755e+00 0.000000e+00 0.000000e+00
1.336478e+00 0.000000e+00 0.000000e+00
1.352201e+00 0.000000e+00 0.000000e+00
1.367925e+00 0.000000e+00 0.000000e+00
1.383648e+00 0.000000e+00 0.000000e+00
1.399371e+00 0.000000e+00 0.000000e+00
1.415094e+00 0.000000e+00 0.000000e+00
1.430818e+00 0.000000e+00 0.000000e+00
1.446541e+00 0.000000e+00 0.000000e+00
1.462264e+00 0.000000e+00 0.000000e+00
1.477987e+00 0.000000e+00 0.000000e+00
1.493711e+00 0.000000e+00 0.000000e+00
1.509434e+00 0.000000e+00 0.000000e+00
1.525157e+00 0.000000e+00 0.000000e+00
1.540881e+00 0.000000e+00 0.000000e+00
1.556604e+00 0.000000e+00 0.000000e+00
1.572327e+00 0.000000e+00 0.000000e+00
1.588050e+00 0.000000e+00 0.000000e+00
1.603774e+00 0.000000e+00 0.000000e+00
1.619497e+00 0.000000e+00 0.000000e+00
1.635220e+00 0.000000e+00 0.000000e+00
1.650943e+00 0.000000e+00 0.000000e+00
1.666667e+00 0.000000e+00 0.000000e+00
1.682390e+00 0.000000e+00 0.000000e+00
1.698113e+00 0.000000e+00 0.000000e+00
1.713836e+00 0.000000e+00 0.000000e+00
1.729560e+00 0.000000e+00 0.000000e+00
1.745283e+00 0.000000e+00 0.000000e+00
1.761006e+00 0.000000e+00 0.000000e+00
1.776730e+00 0.000000e+00 0.000000e+00
1.792453e+00 0.000000e+00 0.000000e+00
1.808176e+00 0.000000e+00 0.000000e+00
1.823899e+00 0.000000e+00 0.000000e+00
1.839623e+00 0.000000e+00 0.000000e+00
1.855346e+00 0.000000e+00 0.000000e+00
1.871069e+00 0.000000e+00 0.000000e+00
1.886792e+00 0.000000e+00 0.000000e+00
1.902516e+00 0.000000e+00 0.000000e+00
1.918239e+00 0.000000e+00 0.000000e+00
1.933962e+00 0.000000e+00 0.000000e+00
1.949686e+00 0.000000e+00 0.000000e+00
1.965409e+00 0.000000e+00 0.000000e+00
1.981132e+00 0.000000e+00 0.000000e+00
1.996855e+00 0.000000e+00 0.000000e+00
2.012579e+00 0.000000e+00 0.000000e+00
2.028302e+00 0.000000e+00 0.000000e+00
2.044025e+00 0.000000e+00 0.000000e+00
2.059748e+00 0.000000e+00 0.000000e+00
2.075472e+00 0.000000e+00 0.000000e+00
2.091195e+00 0.000000e+00 0.000000e+00
2.106918e+00 0.000000e+00 0.000000e+00
2.122642e+00 0.000000e+00 0.000000e+00
2.138365e+00 0.000000e+00 0.000000e+00
2.154088e+00 0.000000e+00 0.000000e+00
2.169811e+00 0.000000e+00 0.000000e+00
2.185535e+00 0.000000e+00 0.000000e+00
2.201258e+00 0.000000e+00 0.000000e+00
2.216981e+00 0.000000e+00 0.000000e+00
2.232704e+00 0.000000e+00 0.000000e+00
2.248428e+00 0.000000e+00 0.000000e+00
2.264151e+00 0.000000e+00 0.000000e+00
2.279874e+00 0.000000e+00 0.000000e+00
2.295597e+00 0.000000e+00 0.000000e+00
2.311321e+00 0.000000e+00 0.000000e+00
2.327044e+00 0.000000e+00 0.000000e+00
2.342767e+00 0.000000e+00 0.000000e+00
2.358491e+00 0.000000e+00 0.000000e+00
2.374214e+00 0.000000e+00 0.000000e+00
2.389937e+00 0.000000e+00 0.000000e+00
2.405660e+00 0.000000e+00 0.000000e+00
2.421384e+00 0.000000e+00 0.000000e+00
2.437107e+00 0.000000e+00 0.000000e+00
2.452830e+00 0.000000e+00 0.000000e+00
2.468553e+00 0.000000e+00 0.000000e+00
2.484277e+00 0.000000e+00 0.000000e+00
2.500000e+00 0.000000e+00 0.000000e+00
2.515723e+00 0.000000e+00 0.000000e+00
2.531447e+00 0.000000e+00 0.000000e+00
2.547170e+00 0.000000e+00 0.000000e+00
2.562893e+00 0.000000e+00 0.000000e+00
2.578616e+00 0.000000e+00 0.000000e+00
2.594340e+00 0.000000e+00 0.000000e+00
2.610063e+00 0.000000e+00 0.000000e+00
2.625786e+00 0.000000e+00 0.000000e+00
2.641509e+00 0.000000e+00 0.000000e+00
2.657233e+00 0.000000e+00 0.000000e+00
2.672956e+00 0.000000e+00 0.000000e+00
2.688679e+00 0.000000e+00 0.000000e+00
2.704403e+00 0.000000e+00 0.000000e+00
2.720126e+00 0.000000e+00 0.000000e+00
2.735849e+00 0.000000e+00 0.000000e+00
2.751572e+00 0.000000e+00 0.000000e+00
2.767296e+00 0.000000e+00 0.000000e+00
2.783019e+00 0.000000e+00 0.000000e+00
2.798742e+00 0.000000e+00 0.000000e+00
2.814465e+00 0.000000e+00 0.000000e+00
2.830189e+00 0.000000e+00 0.000000e+00
2.845912e+00 0.000000e+00 0.000000e+00
2.861635e+00 0.000000e+00 0.000000e+00
2.877358e+00 0.000000e+00 0.000000e+00
2.893082e+00 0.000000e+00 0.000000e+00
2.908805e+00 0.000000e+00 0.000000e+00
2.924528e+00 0.000000e+00 0.000000e+00
2.940252e+00 0.000000e+00 0.000000e+00
2.955975e+00 0.000000e+00 0.000000e+00
2.971698e+00 0.000000e+00 0.000000e+00
2.987421e+00 0.000000e+00 0.000000e+00
3.003145e+00 0.000000e+00 0.000000e+00
3.018868e+00 0.000000e+00 0.000000e+00
3.034591e+00 0.000000e+00 0.000000e+00
3.050314e+00 0.000000e+00 0.000000e+00
3.066038e+00 0.000000e+00 0.000000e+00
3.081761e+00 0.000000e+00 0.000000e+00
3.097484e+00 0.000000e+00 0.000000e+00
3.113208e+00 0.000000e+00 0.000000e+00
3.128931e+00 0.000000e+00 0.000000e+00
3.144654e+00 0.000000e+00 0.000000e+00
3.160377e+00 0.000000e+00 0.000000e+00
3.176101e+00 0.000000e+00 0.000000e+00
3.191824e+00 0.000000e+00 0.000000e+00
3.207547e+00 0.000000e+00 0.000000e+00
3.223270e+00 0.000000e+00 0.000000e+00
3.238994e+00 0.000000e+00 0.000000e+00
3.254717e+00 0.000000e+00 0.000000e+00
3.270440e+00 0.000000e+00 0.000000e+00
3.286164e+00 0.000000e+00 0.000000e+00
3.301887e+00 0.000000e+00 0.000000e+00
3.317610e+00 0.000000e+00 0.000000e+00
3.333333e+00 0.000000e+00 0.000000e+00
3.349057e+00 0.000000e+00 0.000000e+00
3.364780e+00 0.000000e+00 0.000000e+00
3.380503e+00 0.000000e+00 0.000000e+00
3.396226e+00 0.000000e+00 0.000000e+00
3.411950e+00 0.000000e+00 0.000000e+00
3.427673e+00 0.000000e+00 0.000000e+00
3.443396e+00 0.000000e+00 0.000000e+00
3.459119e+00 0.000000e+00 0.000000e+00
3.474843e+00 0.000000e+00 0.000000e+00
3.490566e+00 0.000000e+00 0.000000e+00
3.506289e+00 0.000000e+00 0.000000e+00
3.522013e+00 0.000000e+00 0.000000e+00
3.537736e+00 0.000000e+00 0.000000e+00
3.553459e+00 0.000000e+00 0.000000e+00
3.569182e+00 0.000000e+00 0.000000e+00
3.584906e+00 0.000000e+00 0.000000e+00
3.600629e+00 0.000000e+00 0.000000e+00
3.616352e+00 0.000000e+00 0.000000e+00
3.632075e+00 0.000000e+00 0.000000e+00
3.647799e+00 0.000000e+00 0.000000e+00
3.663522e+00 0.000000e+00 0.000000e+00
3.679245e+00 0.000000e+00 0.000000e+00
3.694969e+00 0.000000e+00 0.000000e+00
3.710692e+00 0.000000e+00 0.000000e+00
3.726415e+00 0.000000e+00 0.000000e+00
3.742138e+00 0.000000e+00 0.000000e+00
3.757862e+00 0.000000e+00 0.000000e+00
3.773585e+00 0.000000e+00 0.000000e+00
3.789308e+00 0.000000e+00 0.000000e+00
3.805031e+00 0.000000e+00 0.000000e+00
3.820755e+00 0.000000e+00 0.000000e+00
3.836478e+00 0.000000e+00 0.000000e+00
3.852201e+00 0.000000e+00 0.000000e+00
3.867925e+00 0.000000e+00 0.000000e+00
3.883648e+00 0.000000e+00 0.000000e+00
3.899371e+00 0.000000e+00 0.000000e+00
3.915094e+00 0.000000e+00 0.000000e+00
3.930818e+00 0.000000e+00 0.000000e+00
[...]
<PointData>
<DataArray Name="Velocity" type="Float64" format="ascii" NumberOfComponents="3">
0.000000e+00 0.000000e+00 0
0.000000e+00 0.000000e+00 0
0.000000e+00 0.000000e+00 0
-9.259239e-21 0.000000e+00 0
0.000000e+00 0.000000e+00 0
0.000000e+00 0.000000e+00 0
8.573877e-20 0.000000e+00 0
0.000000e+00 0.000000e+00 0
0.000000e+00 0.000000e+00 0
0.000000e+00 0.000000e+00 0
0.000000e+00 0.000000e+00 0
0.000000e+00 0.000000e+00 0
-9.023601e-20 0.000000e+00 0
0.000000e+00 0.000000e+00 0
0.000000e+00 0.000000e+00 0
0.000000e+00 0.000000e+00 0
0.000000e+00 0.000000e+00 0
0.000000e+00 0.000000e+00 0
0.000000e+00 0.000000e+00 0
0.000000e+00 0.000000e+00 0
0.000000e+00 0.000000e+00 0
0.000000e+00 0.000000e+00 0
0.000000e+00 0.000000e+00 0
0.000000e+00 0.000000e+00 0
-8.089239e-20 0.000000e+00 0
0.000000e+00 0.000000e+00 0
0.000000e+00 0.000000e+00 0
0.000000e+00 0.000000e+00 0
0.000000e+00 0.000000e+00 0
0.000000e+00 0.000000e+00 0
0.000000e+00 0.000000e+00 0
0.000000e+00 0.000000e+00 0
0.000000e+00 0.000000e+00 0
0.000000e+00 0.000000e+00 0
0.000000e+00 0.000000e+00 0
0.000000e+00 0.000000e+00 0
0.000000e+00 0.000000e+00 0
0.000000e+00 0.000000e+00 0
0.000000e+00 0.000000e+00 0
0.000000e+00 0.000000e+00 0
0.000000e+00 0.000000e+00 0
0.000000e+00 0.000000e+00 0
0.000000e+00 0.000000e+00 0
0.000000e+00 0.000000e+00 0
0.000000e+00 0.000000e+00 0
0.000000e+00 0.000000e+00 0
0.000000e+00 0.000000e+00 0
0.000000e+00 0.000000e+00 0
2.356278e-18 0.000000e+00 0
0.000000e+00 0.000000e+00 0
0.000000e+00 0.000000e+00 0
0.000000e+00 0.000000e+00 0
0.000000e+00 0.000000e+00 0
0.000000e+00 0.000000e+00 0
0.000000e+00 0.000000e+00 0
0.000000e+00 0.000000e+00 0
0.000000e+00 0.000000e+00 0
0.000000e+00 0.000000e+00 0
0.000000e+00 0.000000e+00 0
0.000000e+00 0.000000e+00 0
0.000000e+00 0.000000e+00 0
0.000000e+00 0.000000e+00 0
0.000000e+00 0.000000e+00 0
0.000000e+00 0.000000e+00 0
0.000000e+00 0.000000e+00 0
0.000000e+00 0.000000e+00 0
0.000000e+00 0.000000e+00 0
0.000000e+00 0.000000e+00 0
0.000000e+00 0.000000e+00 0
0.000000e+00 0.000000e+00 0
0.000000e+00 0.000000e+00 0
0.000000e+00 0.000000e+00 0
0.000000e+00 0.000000e+00 0
0.000000e+00 0.000000e+00 0
0.000000e+00 0.000000e+00 0
0.000000e+00 0.000000e+00 0
0.000000e+00 0.000000e+00 0
0.000000e+00 0.000000e+00 0
0.000000e+00 0.000000e+00 0
0.000000e+00 0.000000e+00 0
0.000000e+00 0.000000e+00 0
0.000000e+00 0.000000e+00 0
0.000000e+00 0.000000e+00 0
0.000000e+00 0.000000e+00 0
0.000000e+00 0.000000e+00 0
0.000000e+00 0.000000e+00 0
0.000000e+00 0.000000e+00 0
0.000000e+00 0.000000e+00 0
0.000000e+00 0.000000e+00 0
0.000000e+00 0.000000e+00 0
0.000000e+00 0.000000e+00 0
0.000000e+00 0.000000e+00 0
0.000000e+00 0.000000e+00 0
0.000000e+00 0.000000e+00 0
0.000000e+00 0.000000e+00 0
0.000000e+00 0.000000e+00 0
0.000000e+00 0.000000e+00 0
0.000000e+00 0.000000e+00 0
0.000000e+00 0.000000e+00 0
0.000000e+00 0.000000e+00 0
0.000000e+00 0.000000e+00 0
0.000000e+00 0.000000e+00 0
0.000000e+00 0.000000e+00 0
0.000000e+00 0.000000e+00 0
0.000000e+00 0.000000e+00 0
0.000000e+00 0.000000e+00 0
0.000000e+00 0.000000e+00 0
0.000000e+00 0.000000e+00 0
0.000000e+00 0.000000e+00 0
0.000000e+00 0.000000e+00 0
0.000000e+00 0.000000e+00 0
0.000000e+00 0.000000e+00 0
0.000000e+00 0.000000e+00 0
0.000000e+00 0.000000e+00 0
0.000000e+00 0.000000e+00 0
0.000000e+00 0.000000e+00 0
0.000000e+00 0.000000e+00 0
0.000000e+00 0.000000e+00 0
0.000000e+00 0.000000e+00 0
0.000000e+00 0.000000e+00 0
0.000000e+00 0.000000e+00 0
0.000000e+00 0.000000e+00 0
0.000000e+00 0.000000e+00 0
0.000000e+00 0.000000e+00 0
0.000000e+00 0.000000e+00 0
0.000000e+00 0.000000e+00 0
0.000000e+00 0.000000e+00 0
0.000000e+00 0.000000e+00 0
0.000000e+00 0.000000e+00 0
0.000000e+00 0.000000e+00 0
-1.877974e-16 0.000000e+00 0
0.000000e+00 0.000000e+00 0
0.000000e+00 0.000000e+00 0
0.000000e+00 0.000000e+00 0
-7.902904e-17 0.000000e+00 0
0.000000e+00 0.000000e+00 0
0.000000e+00 0.000000e+00 0
0.000000e+00 0.000000e+00 0
-1.099078e-16 0.000000e+00 0
0.000000e+00 0.000000e+00 0
0.000000e+00 0.000000e+00 0
0.000000e+00 0.000000e+00 0
2.204978e-17 0.000000e+00 0
0.000000e+00 0.000000e+00 0
0.000000e+00 0.000000e+00 0
0.000000e+00 0.000000e+00 0
-1.095075e-16 0.000000e+00 0
0.000000e+00 0.000000e+00 0
0.000000e+00 0.000000e+00 0
0.000000e+00 0.000000e+00 0
-1.282167e-16 0.000000e+00 0
0.000000e+00 0.000000e+00 0
0.000000e+00 0.000000e+00 0
0.000000e+00 0.000000e+00 0
-1.471580e-16 0.000000e+00 0
0.000000e+00 0.000000e+00 0
0.000000e+00 0.000000e+00 0
0.000000e+00 0.000000e+00 0
-4.412464e-17 0.000000e+00 0
0.000000e+00 0.000000e+00 0
0.000000e+00 0.000000e+00 0
-5.152739e-17 0.000000e+00 0
0.000000e+00 0.000000e+00 0
0.000000e+00 0.000000e+00 0
0.000000e+00 0.000000e+00 0
-1.055337e-16 0.000000e+00 0
0.000000e+00 0.000000e+00 0
0.000000e+00 0.000000e+00 0
0.000000e+00 0.000000e+00 0
-2.586068e-17 0.000000e+00 0
0.000000e+00 0.000000e+00 0
0.000000e+00 0.000000e+00 0
0.000000e+00 0.000000e+00 0
9.567236e-17 0.000000e+00 0
0.000000e+00 0.000000e+00 0
0.000000e+00 0.000000e+00 0
0.000000e+00 0.000000e+00 0
6.523897e-17 0.000000e+00 0
0.000000e+00 0.000000e+00 0
0.000000e+00 0.000000e+00 0
0.000000e+00 0.000000e+00 0
3.458423e-17 0.000000e+00 0
0.000000e+00 0.000000e+00 0
0.000000e+00 0.000000e+00 0
0.000000e+00 0.000000e+00 0
-1.396146e-17 0.000000e+00 0
0.000000e+00 0.000000e+00 0
0.000000e+00 0.000000e+00 0
0.000000e+00 0.000000e+00 0
1.770230e-17 0.000000e+00 0
0.000000e+00 0.000000e+00 0
0.000000e+00 0.000000e+00 0
1.241962e-19 0.000000e+00 0
0.000000e+00 0.000000e+00 0
0.000000e+00 0.000000e+00 0
0.000000e+00 0.000000e+00 0
-5.576748e-18 0.000000e+00 0
0.000000e+00 0.000000e+00 0
0.000000e+00 0.000000e+00 0
0.000000e+00 0.000000e+00 0
1.010122e-17 0.000000e+00 0
0.000000e+00 0.000000e+00 0
0.000000e+00 0.000000e+00 0
0.000000e+00 0.000000e+00 0
1.214100e-17 0.000000e+00 0
0.000000e+00 0.000000e+00 0
0.000000e+00 0.000000e+00 0
0.000000e+00 0.000000e+00 0
2.406460e-17 0.000000e+00 0
0.000000e+00 0.000000e+00 0
0.000000e+00 0.000000e+00 0
0.000000e+00 0.000000e+00 0
-3.849969e-17 0.000000e+00 0
0.000000e+00 0.000000e+00 0
0.000000e+00 0.000000e+00 0
0.000000e+00 0.000000e+00 0
-2.698741e-17 0.000000e+00 0
0.000000e+00 0.000000e+00 0
0.000000e+00 0.000000e+00 0
0.000000e+00 0.000000e+00 0
-8.963405e-18 0.000000e+00 0
0.000000e+00 0.000000e+00 0
0.000000e+00 0.000000e+00 0
0.000000e+00 0.000000e+00 0
1.587960e-18 0.000000e+00 0
0.000000e+00 0.000000e+00 0
0.000000e+00 0.000000e+00 0
-1.020512e-17 0.000000e+00 0
0.000000e+00 0.000000e+00 0
0.000000e+00 0.000000e+00 0
0.000000e+00 0.000000e+00 0
-9.125807e-19 0.000000e+00 0
0.000000e+00 0.000000e+00 0
0.000000e+00 0.000000e+00 0
0.000000e+00 0.000000e+00 0
-4.868663e-17 0.000000e+00 0
0.000000e+00 0.000000e+00 0
0.000000e+00 0.000000e+00 0
0.000000e+00 0.000000e+00 0
-5.312923e-17 0.000000e+00 0
0.000000e+00 0.000000e+00 0
0.000000e+00 0.000000e+00 0
0.000000e+00 0.000000e+00 0
-2.935554e-17 0.000000e+00 0
0.000000e+00 0.000000e+00 0
0.000000e+00 0.000000e+00 0
0.000000e+00 0.000000e+00 0
-1.051340e-16 0.000000e+00 0
0.000000e+00 0.000000e+00 0
0.000000e+00 0.000000e+00 0
0.000000e+00 0.000000e+00 0
-7.484542e-17 0.000000e+00 0
0.000000e+00 0.000000e+00 0
0.000000e+00 0.000000e+00 0
0.000000e+00 0.000000e+00 0
0.000000e+00 0.000000e+00 0
0.000000e+00 0.000000e+00 0
0.000000e+00 0.000000e+00 0
0.000000e+00 0.000000e+00 0
0.000000e+00 0.000000e+00 0
0.000000e+00 0.000000e+00 0
0.000000e+00 0.000000e+00 0
0.000000e+00 0.000000e+00 0
0.000000e+00 0.000000e+00 0
0.000000e+00 0.000000e+00 0
0.000000e+00 0.000000e+00 0
0.000000e+00 0.000000e+00 0
0.000000e+00 0.000000e+00 0
0.000000e+00 0.000000e+00 0
0.000000e+00 0.000000e+00 0
0.000000e+00 0.000000e+00 0
0.000000e+00 0.000000e+00 0
0.000000e+00 0.000000e+00 0
0.000000e+00 0.000000e+00 0
0.000000e+00 0.000000e+00 0
0.000000e+00 0.000000e+00 0
0.000000e+00 0.000000e+00 0
0.000000e+00 0.000000e+00 0
0.000000e+00 0.000000e+00 0
0.000000e+00 0.000000e+00 0
0.000000e+00 0.000000e+00 0
0.000000e+00 0.000000e+00 0
0.000000e+00 0.000000e+00 0
0.000000e+00 0.000000e+00 0
0.000000e+00 0.000000e+00 0
0.000000e+00 0.000000e+00 0
0.000000e+00 0.000000e+00 0
0.000000e+00 0.000000e+00 0
0.000000e+00 0.000000e+00 0
0.000000e+00 0.000000e+00 0
0.000000e+00 0.000000e+00 0
0.000000e+00 0.000000e+00 0
0.000000e+00 0.000000e+00 0
0.000000e+00 0.000000e+00 0
0.000000e+00 0.000000e+00 0
0.000000e+00 0.000000e+00 0
0.000000e+00 0.000000e+00 0
0.000000e+00 0.000000e+00 0
0.000000e+00 0.000000e+00 0
0.000000e+00 0.000000e+00 0
0.000000e+00 0.000000e+00 0
0.000000e+00 0.000000e+00 0
0.000000e+00 0.000000e+00 0
0.000000e+00 0.000000e+00 0
0.000000e+00 0.000000e+00 0
0.000000e+00 0.000000e+00 0
0.000000e+00 0.000000e+00 0
0.000000e+00 0.000000e+00 0
0.000000e+00 0.000000e+00 0
0.000000e+00 0.000000e+00 0
0.000000e+00 0.000000e+00 0
0.000000e+00 0.000000e+00 0
0.000000e+00 0.000000e+00 0
0.000000e+00 0.000000e+00 0
0.000000e+00 0.000000e+00 0
0.000000e+00 0.000000e+00 0
0.000000e+00 0.000000e+00 0
0.000000e+00 0.000000e+00 0
0.000000e+00 0.000000e+00 0
0.000000e+00 0.000000e+00 0
-1.990775e-02 -3.017204e-02 0
-1.026023e-02 -7.934459e-03 0
-7.919342e-03 -2.256689e-03 0
-6.860107e-03 -3.693558e-04 0
-6.431387e-03 1.940252e-04 0
-6.174782e-03 3.413786e-04 0
-5.960346e-03 3.729312e-04 0
-5.752816e-03 3.758653e-04 0
-5.544661e-03 3.722722e-04 0
-5.334371e-03 3.671464e-04 0
-5.121664e-03 3.615045e-04 0
-4.906526e-03 3.555250e-04 0
-4.689111e-03 3.492293e-04 0
-4.470065e-03 3.426351e-04 0
-4.252503e-03 3.358864e-04 0
-4.055740e-03 3.298740e-04 0
-4.025867e-03 3.299656e-04 0
-5.309169e-03 3.626752e-04 0
-1.338865e-02 4.816578e-04 0
-3.191780e-02 6.292221e-04 0
-4.804391e-02 6.331796e-04 0
-6.124763e-02 4.780303e-04 0
-7.805387e-02 2.857513e-04 0
-9.318897e-02 1.469134e-04 0
-1.041001e-01 9.318337e-05 0
-1.129490e-01 1.000568e-04 0
-1.205642e-01 1.345692e-04 0
-1.275021e-01 1.786276e-04 0
-1.346668e-01 2.238447e-04 0
-1.431562e-01 2.676176e-04 0
-1.545376e-01 3.205036e-04 0
3.533403e+00 -3.487136e-03 0
0.000000e+00 -1.040834e-16 0
-7.120248e-03 7.152329e-03 0
-1.332497e-02 5.673438e-03 0
-1.650670e-02 3.124362e-03 0
-1.713273e-02 1.123329e-03 0
-1.636567e-02 1.391181e-04 0
-1.522111e-02 7.104988e-05 0
-1.440854e-02 6.454389e-04 0
-1.439875e-02 1.636650e-03 0
-1.551126e-02 2.882897e-03 0
-1.796418e-02 4.299502e-03 0
-2.190094e-02 5.823569e-03 0
-2.742957e-02 7.389593e-03 0
-3.461876e-02 8.965577e-03 0
-4.350437e-02 1.051620e-02 0
-5.409601e-02 1.200389e-02 0
-6.636714e-02 1.341590e-02 0
-8.024009e-02 1.470866e-02 0
-9.560468e-02 1.578781e-02 0
-1.123109e-01 1.656372e-02 0
-1.301269e-01 1.698110e-02 0
-1.487442e-01 1.699919e-02 0
-1.677700e-01 1.655056e-02 0
-1.867338e-01 1.556329e-02 0
-2.050993e-01 1.400140e-02 0
-2.222621e-01 1.186890e-02 0
-2.375335e-01 9.190281e-03 0
-2.501188e-01 5.988923e-03 0
-2.590825e-01 2.276253e-03 0
-2.633085e-01 -2.029239e-03 0
-2.615495e-01 -7.187595e-03 0
-2.526629e-01 -1.336977e-02 0
-2.358078e-01 -2.027230e-02 0
-2.111901e-01 -2.694701e-02 0
-1.808452e-01 -3.182428e-02 0
-1.490159e-01 -3.319975e-02 0
-1.214352e-01 -3.001250e-02 0
-1.045112e-01 -2.278370e-02 0
-1.201139e-01 -1.786926e-02 0
-1.873168e-01 2.803933e-03 0
-2.946635e-01 7.110793e-02 0
-4.394464e-01 1.504675e-01 0
-6.151347e-01 1.897825e-01 0
-8.060196e-01 1.991244e-01 0
-1.001744e+00 2.002256e-01 0
-1.197113e+00 1.986112e-01 0
-1.388814e+00 1.945551e-01 0
-1.574505e+00 1.884932e-01 0
-1.752616e+00 1.810567e-01 0
-1.922239e+00 1.728492e-01 0
-2.083024e+00 1.643900e-01 0
-2.235064e+00 1.560953e-01 0
-2.378796e+00 1.482766e-01 0
-2.514892e+00 1.411484e-01 0
-2.644181e+00 1.348408e-01 0
-2.767566e+00 1.294134e-01 0
-2.885968e+00 1.248698e-01 0
-3.000279e+00 1.211704e-01 0
-3.111325e+00 1.182448e-01 0
-3.219844e+00 1.160010e-01 0
-3.326470e+00 1.143343e-01 0
-3.431723e+00 1.131337e-01 0
-3.536012e+00 1.122879e-01 0
-3.639632e+00 1.116889e-01 0
-3.742775e+00 1.112356e-01 0
-3.845534e+00 1.108363e-01 0
-3.947920e+00 1.104097e-01 0
-4.049865e+00 1.098861e-01 0
-4.151243e+00 1.092069e-01 0
-4.251873e+00 1.083242e-01 0
-4.351531e+00 1.072000e-01 0
-4.449961e+00 1.058046e-01 0
-4.546880e+00 1.041158e-01 0
-4.641981e+00 1.021178e-01 0
-4.734944e+00 9.980051e-02 0
-4.825438e+00 9.715891e-02 0
-4.913129e+00 9.419262e-02 0
-4.997688e+00 9.090511e-02 0
-5.078794e+00 8.730266e-02 0
-5.156141e+00 8.339300e-02 0
-5.229437e+00 7.918388e-02 0
-5.298397e+00 7.468194e-02 0
-5.362748e+00 6.989230e-02 0
-5.422217e+00 6.481926e-02 0
-5.476533e+00 5.946781e-02 0
-5.525427e+00 5.384535e-02 0
-5.568636e+00 4.796313e-02 0
-5.605907e+00 4.183718e-02 0
-5.637004e+00 3.548907e-02 0
-5.661712e+00 2.894530e-02 0
-5.679845e+00 2.223466e-02 0
-5.691258e+00 1.538406e-02 0
-5.695850e+00 8.417398e-03 0
-5.693513e+00 1.343038e-03 0
-5.684384e+00 -5.746295e-03 0
-5.668608e+00 -1.269983e-02 0
-5.646392e+00 -1.941938e-02 0
-5.618010e+00 -2.582051e-02 0
-5.583813e+00 -3.182244e-02 0
-5.544223e+00 -3.734923e-02 0
-5.499726e+00 -4.233289e-02 0
-5.450866e+00 -4.671608e-02 0
-5.398236e+00 -5.045404e-02 0
-5.342466e+00 -5.351596e-02 0
-5.284209e+00 -5.588622e-02 0
-5.224126e+00 -5.756563e-02 0
-5.162869e+00 -5.857251e-02 0
-5.101066e+00 -5.894348e-02 0
-5.039299e+00 -5.873352e-02 0
-4.978091e+00 -5.801529e-02 0
-4.917884e+00 -5.687755e-02 0
-4.859031e+00 -5.542297e-02 0
-4.801780e+00 -5.376511e-02 0
-4.746263e+00 -5.202496e-02 0
-4.692497e+00 -5.032705e-02 0
-4.640377e+00 -4.879528e-02 0
-4.589680e+00 -4.754872e-02 0
-4.540074e+00 -4.669742e-02 0
-4.491123e+00 -4.633862e-02 0
-4.442307e+00 -4.655337e-02 0
-4.393035e+00 -4.740378e-02 0
-4.342665e+00 -4.893101e-02 0
-4.290527e+00 -5.115394e-02 0
-4.235943e+00 -5.406868e-02 0
-4.178250e+00 -5.764881e-02 0
-4.116819e+00 -6.184632e-02 0
-4.051082e+00 -6.659333e-02 0
-3.980543e+00 -7.180479e-02 0
-3.904797e+00 -7.738219e-02 0
-3.823541e+00 -8.321827e-02 0
-3.736581e+00 -8.920231e-02 0
-3.643829e+00 -9.522551e-02 0
-3.545305e+00 -1.011860e-01 0
-3.441122e+00 -1.069922e-01 0
-3.331473e+00 -1.125635e-01 0
-3.216626e+00 -1.178278e-01 0
-3.096911e+00 -1.227202e-01 0
-2.972717e+00 -1.271838e-01 0
-2.844486e+00 -1.311747e-01 0
-2.712697e+00 -1.346707e-01 0
-2.577841e+00 -1.376764e-01 0
-2.440384e+00 -1.402165e-01 0
-2.300752e+00 -1.423125e-01 0
-2.159342e+00 -1.439504e-01 0
-2.016611e+00 -1.450961e-01 0
-1.873064e+00 -1.457580e-01 0
-1.729136e+00 -1.459982e-01 0
-1.585175e+00 -1.458761e-01 0
-1.441525e+00 -1.454095e-01 0
-1.298519e+00 -1.445705e-01 0
-1.156483e+00 -1.432729e-01 0
-1.015797e+00 -1.414984e-01 0
-8.769882e-01 -1.394750e-01 0
-7.402774e-01 -1.376158e-01 0
-6.053434e-01 -1.354583e-01 0
-4.726664e-01 -1.322296e-01 0
-3.428683e-01 -1.281458e-01 0
-2.149610e-01 -1.254610e-01 0
-9.134507e-02 -1.234930e-01 0
2.785096e-02 -1.202092e-01 0
1.428523e-01 -1.171930e-01 0
2.537036e-01 -1.128980e-01 0
3.599401e-01 -1.072767e-01 0
4.614649e-01 -1.022747e-01 0
5.582187e-01 -9.731611e-02 0
6.501794e-01 -9.241124e-02 0
7.373784e-01 -8.749836e-02 0
8.198774e-01 -8.246078e-02 0
8.977759e-01 -7.740306e-02 0
9.712260e-01 -7.252835e-02 0
1.040428e+00 -6.797512e-02 0
1.105614e+00 -6.378444e-02 0
1.167034e+00 -5.994038e-02 0
1.224941e+00 -5.641174e-02 0
1.279593e+00 -5.317234e-02 0
1.331245e+00 -5.020490e-02 0
1.380151e+00 -4.749822e-02 0
1.426559e+00 -4.504351e-02 0
1.470713e+00 -4.283187e-02 0
1.512846e+00 -4.085297e-02 0
1.553181e+00 -3.909470e-02 0
1.591927e+00 -3.754323e-02 0
1.629280e+00 -3.618331e-02 0
1.665420e+00 -3.499866e-02 0
1.700511e+00 -3.397244e-02 0
1.734702e+00 -3.308761e-02 0
1.768122e+00 -3.232733e-02 0
1.800887e+00 -3.167523e-02 0
1.833097e+00 -3.111572e-02 0
1.864836e+00 -3.063417e-02 0
1.896176e+00 -3.021703e-02 0
1.927176e+00 -2.985195e-02 0
1.957883e+00 -2.952784e-02 0
1.988334e+00 -2.923482e-02 0
2.018557e+00 -2.896424e-02 0
2.048573e+00 -2.870862e-02 0
2.078395e+00 -2.846153e-02 0
2.108029e+00 -2.821756e-02 0
2.137479e+00 -2.797218e-02 0
2.166743e+00 -2.772163e-02 0
2.195814e+00 -2.746286e-02 0
2.224686e+00 -2.719339e-02 0
2.253345e+00 -2.691122e-02 0
2.281780e+00 -2.661477e-02 0
2.309975e+00 -2.630275e-02 0
2.337914e+00 -2.597418e-02 0
2.365579e+00 -2.562826e-02 0
2.392950e+00 -2.526435e-02 0
2.420007e+00 -2.488197e-02 0
2.446730e+00 -2.448075e-02 0
2.473095e+00 -2.406043e-02 0
2.499080e+00 -2.362087e-02 0
2.524662e+00 -2.316205e-02 0
2.549817e+00 -2.268411e-02 0
2.574520e+00 -2.218731e-02 0
2.598747e+00 -2.167214e-02 0
2.622473e+00 -2.113926e-02 0
2.645675e+00 -2.058958e-02 0
2.668330e+00 -2.002425e-02 0
2.690416e+00 -1.944470e-02 0
2.711912e+00 -1.885264e-02 0
2.732798e+00 -1.825005e-02 0
2.753058e+00 -1.763920e-02 0
2.772678e+00 -1.702264e-02 0
2.791646e+00 -1.640318e-02 0
2.809954e+00 -1.578388e-02 0
2.827597e+00 -1.516799e-02 0
2.844574e+00 -1.455896e-02 0
2.860888e+00 -1.396036e-02 0
2.876547e+00 -1.337588e-02 0
2.891562e+00 -1.280926e-02 0
2.905950e+00 -1.226425e-02 0
2.919731e+00 -1.174454e-02 0
2.932932e+00 -1.125376e-02 0
2.945582e+00 -1.079539e-02 0
2.957717e+00 -1.037274e-02 0
2.969373e+00 -9.988879e-03 0
2.980594e+00 -9.646594e-03 0
2.991426e+00 -9.348360e-03 0
3.001917e+00 -9.096287e-03 0
3.012119e+00 -8.892084e-03 0
3.022087e+00 -8.737019e-03 0
3.031876e+00 -8.631889e-03 0
3.041542e+00 -8.576991e-03 0
3.051143e+00 -8.572098e-03 0
3.060736e+00 -8.616441e-03 0
3.070377e+00 -8.708702e-03 0
3.080121e+00 -8.847008e-03 0
3.090022e+00 -9.028935e-03 0
3.100131e+00 -9.251530e-03 0
3.110493e+00 -9.511323e-03 0
3.121153e+00 -9.804370e-03 0
3.132151e+00 -1.012629e-02 0
3.143520e+00 -1.047231e-02 0
3.155291e+00 -1.083735e-02 0
3.167488e+00 -1.121603e-02 0
3.180128e+00 -1.160282e-02 0
3.193226e+00 -1.199203e-02 0
3.206786e+00 -1.237794e-02 0
3.220810e+00 -1.275487e-02 0
3.235293e+00 -1.311722e-02 0
3.250224e+00 -1.345959e-02 0
3.265585e+00 -1.377679e-02 0
3.281355e+00 -1.406394e-02 0
3.297507e+00 -1.431651e-02 0
3.314009e+00 -1.453039e-02 0
3.330825e+00 -1.470189e-02 0
3.347915e+00 -1.482781e-02 0
3.365238e+00 -1.490547e-02 0
3.382746e+00 -1.493277e-02 0
3.400393e+00 -1.490820e-02 0
3.418129e+00 -1.483089e-02 0
3.435904e+00 -1.470074e-02 0
3.453667e+00 -1.451843e-02 0
3.471368e+00 -1.428564e-02 0
3.488958e+00 -1.400513e-02 0
3.506390e+00 -1.368108e-02 0
3.523620e+00 -1.331938e-02 0
3.540610e+00 -1.292827e-02 0
3.557325e+00 -1.251953e-02 0
3.573742e+00 -1.211114e-02 0
3.589847e+00 -1.173377e-02 0
3.605644e+00 -1.145213e-02 0
3.621168e+00 -1.132718e-02 0
3.636463e+00 -1.339798e-02 0
3.636463e+00 -1.548811e-02 0
0.000000e+00 0.000000e+00 0
-1.833522e-02 -2.181593e-02 0
-1.346725e-02 -6.854463e-03 0
-1.255509e-02 -1.824612e-03 0
-1.184884e-02 -4.449788e-06 0
-1.139696e-02 5.504145e-04 0
-1.100335e-02 6.915748e-04 0
-1.062769e-02 7.180044e-04 0
-1.025266e-02 7.161911e-04 0
-9.874706e-03 7.078497e-04 0
-9.493116e-03 6.978119e-04 0
-9.107830e-03 6.870372e-04 0
-8.719054e-03 6.756887e-04 0
-8.327590e-03 6.638131e-04 0
-7.936895e-03 6.516111e-04 0
-7.566494e-03 6.402977e-04 0
-7.357009e-03 6.376303e-04 0
-8.436970e-03 6.908442e-04 0
-1.704533e-02 9.515128e-04 0
-4.203097e-02 1.365342e-03 0
-7.165707e-02 1.398737e-03 0
-8.914134e-02 9.454900e-04 0
-9.980844e-02 4.804254e-04 0
-1.096637e-01 2.107286e-04 0
-1.175429e-01 1.009247e-04 0
-1.237679e-01 9.364731e-05 0
-1.289498e-01 1.427747e-04 0
-1.332416e-01 2.198453e-04 0
-1.371161e-01 3.102310e-04 0
-1.413123e-01 4.054552e-04 0
-1.468205e-01 5.036471e-04 0
-1.551911e-01 6.273511e-04 0
3.539416e+00 -6.954470e-03 0
0.000000e+00 -2.081668e-16 0
-6.461268e-03 1.367008e-02 0
-1.100542e-02 9.629449e-03 0
-1.208769e-02 3.906789e-03 0
-1.087336e-02 -1.439002e-04 0
-8.680772e-03 -1.960183e-03 0
-6.332002e-03 -2.006884e-03 0
-4.378749e-03 -8.428328e-04 0
-3.207464e-03 1.131937e-03 0
-3.102979e-03 3.658202e-03 0
-4.284162e-03 6.555330e-03 0
-6.896554e-03 9.710413e-03 0
-1.106882e-02 1.304677e-02 0
-1.690872e-02 1.649038e-02 0
-2.449452e-02 1.998064e-02 0
-3.389226e-02 2.345351e-02 0
-4.514330e-02 2.681951e-02 0
-5.824119e-02 2.999280e-02 0
-7.316934e-02 3.289919e-02 0
-8.988337e-02 3.541388e-02 0
-1.083040e-01 3.737420e-02 0
-1.282478e-01 3.861527e-02 0