<?xml version="1.0"?>
<VTKFile type="StructuredGrid">
<StructuredGrid WholeExtent="0 318 0 62 0 0 ">
<Piece Extent="0 318 0 62 0 0 ">
<Points>
<DataArray type="Float64" format="ascii" NumberOfComponents="3">
0.000000e+00 0.000000e+00 0.000000e+00
1.572327e-02 0.000000e+00 0.000000e+00
3.144654e-02 0.000000e+00 0.000000e+00
4.716981e-02 0.000000e+00 0.000000e+00
6.289308e-02 0.000000e+00 0.000000e+00
7.861635e-02 0.000000e+00 0.000000e+00
9.433962e-02 0.000000e+00 0.000000e+00
1.100629e-01 0.000000e+00 0.000000e+00
1.257862e-01 0.000000e+00 0.000000e+00
1.415094e-01 0.000000e+00 0.000000e+00
1.572327e-01 0.000000e+00 0.000000e+00
1.729560e-01 0.000000e+00 0.000000e+00
1.886792e-01 0.000000e+00 0.000000e+00
2.044025e-01 0.000000e+00 0.000000e+00
2.201258e-01 0.000000e+00 0.000000e+00
2.358491e-01 0.000000e+00 0.000000e+00
2.515723e-01 0.000000e+00 0.000000e+00
2.672956e-01 0.000000e+00 0.000000e+00
2.830189e-01 0.000000e+00 0.000000e+00
2.987421e-01 0.000000e+00 0.000000e+00
3.144654e-01 0.000000e+00 0.000000e+00
3.301887e-01 0.000000e+00 0.000000e+00
3.459119e-01 0.000000e+00 0.000000e+00
3.616352e-01 0.000000e+00 0.000000e+00
3.773585e-01 0.000000e+00 0.000000e+00
3.930818e-01 0.000000e+00 0.000000e+00
4.088050e-01 0.000000e+00 0.000000e+00
4.245283e-01 0.000000e+00 0.000000e+00
4.402516e-01 0.000000e+00 0.000000e+00
4.559748e-01 0.000000e+00 0.000000e+00
4.716981e-01 0.000000e+00 0.000000e+00
4.874214e-01 0.000000e+00 0.000000e+00
5.031447e-01 0.000000e+00 0.000000e+00
5.188679e-01 0.000000e+00 0.000000e+00
5.345912e-01 0.000000e+00 0.000000e+00
5.503145e-01 0.000000e+00 0.000000e+00
5.660377e-01 0.000000e+00 0.000000e+00
5.817610e-01 0.000000e+00 0.000000e+00
5.974843e-01 0.000000e+00 0.000000e+00
6.132075e-01 0.000000e+00 0.000000e+00
6.289308e-01 0.000000e+00 0.000000e+00
6.446541e-01 0.000000e+00 0.000000e+00
6.603774e-01 0.000000e+00 0.000000e+00
6.761006e-01 0.000000e+00 0.000000e+00
6.918239e-01 0.000000e+00 0.000000e+00
7.075472e-01 0.000000e+00 0.000000e+00
7.232704e-01 0.000000e+00 0.000000e+00
7.389937e-01 0.000000e+00 0.000000e+00
7.547170e-01 0.000000e+00 0.000000e+00
7.704403e-01 0.000000e+00 0.000000e+00
7.861635e-01 0.000000e+00 0.000000e+00
8.018868e-01 0.000000e+00 0.000000e+00
8.176101e-01 0.000000e+00 0.000000e+00
8.333333e-01 0.000000e+00 0.000000e+00
8.490566e-01 0.000000e+00 0.000000e+00
8.647799e-01 0.000000e+00 0.000000e+00
8.805031e-01 0.000000e+00 0.000000e+00
8.962264e-01 0.000000e+00 0.000000e+00
9.119497e-01 0.000000e+00 0.000000e+00
9.276730e-01 0.000000e+00 0.000000e+00
9.433962e-01 0.000000e+00 0.000000e+00
9.591195e-01 0.000000e+00 0.000000e+00
9.748428e-01 0.000000e+00 0.000000e+00
9.905660e-01 0.000000e+00 0.000000e+00
1.006289e+00 0.000000e+00 0.000000e+00
1.022013e+00 0.000000e+00 0.000000e+00
1.037736e+00 0.000000e+00 0.000000e+00
1.053459e+00 0.000000e+00 0.000000e+00
1.069182e+00 0.000000e+00 0.000000e+00
1.084906e+00 0.000000e+00 0.000000e+00
1.100629e+00 0.000000e+00 0.000000e+00
1.116352e+00 0.000000e+00 0.000000e+00
1.132075e+00 0.000000e+00 0.000000e+00
1.147799e+00 0.000000e+00 0.000000e+00
1.163522e+00 0.000000e+00 0.000000e+00
1.179245e+00 0.000000e+00 0.000000e+00
1.194969e+00 0.000000e+00 0.000000e+00
1.210692e+00 0.000000e+00 0.000000e+00
1.226415e+00 0.000000e+00 0.000000e+00
1.242138e+00 0.000000e+00 0.000000e+00
1.257862e+00 0.000000e+00 0.000000e+00
1.273585e+00 0.000000e+00 0.000000e+00
1.289308e+00 0.000000e+00 0.000000e+00
1.305031e+00 0.000000e+00 0.000000e+00
1.320755e+00 0.000000e+00 0.000000e+00
1.336478e+00 0.000000e+00 0.000000e+00
1.352201e+00 0.000000e+00 0.000000e+00
1.367925e+00 0.000000e+00 0.000000e+00
1.383648e+00 0.000000e+00 0.000000e+00
1.399371e+00 0.000000e+00 0.000000e+00
1.415094e+00 0.000000e+00 0.000000e+00
1.430818e+00 0.000000e+00 0.000000e+00
1.446541e+00 0.000000e+00 0.000000e+00
1.462264e+00 0.000000e+00 0.000000e+00
1.477987e+00 0.000000e+00 0.000000e+00
1.493711e+00 0.000000e+00 0.000000e+00
1.509434e+00 0.000000e+00 0.000000e+00
1.525157e+00 0.000000e+00 0.000000e+00
1.540881e+00 0.000000e+00 0.000000e+00
1.556604e+00 0.000000e+00 0.000000e+00
1.572327e+00 0.000000e+00 0.000000e+00
1.588050e+00 0.000000e+00 0.000000e+00
1.603774e+00 0.000000e+00 0.000000e+00
1.619497e+00 0.000000e+00 0.000000e+00
1.635220e+00 0.000000e+00 0.000000e+00
1.650943e+00 0.000000e+00 0.000000e+00
1.666667e+00 0.000000e+00 0.000000e+00
1.682390e+00 0.000000e+00 0.000000e+00
1.698113e+00 0.000000e+00 0.000000e+00
1.713836e+00 0.000000e+00 0.000000e+00
1.729560e+00 0.000000e+00 0.000000e+00
1.745283e+00 0.000000e+00 0.000000e+00
1.761006e+00 0.000000e+00 0.000000e+00
1.776730e+00 0.000000e+00 0.000000e+00
1.792453e+00 0.000000e+00 0.000000e+00
1.808176e+00 0.000000e+00 0.000000e+00
1.823899e+00 0.000000e+00 0.000000e+00
1.839623e+00 0.000000e+00 0.000000e+00
1.855346e+00 0.000000e+00 0.000000e+00
1.871069e+00 0.000000e+00 0.000000e+00
1.886792e+00 0.000000e+00 0.000000e+00
1.902516e+00 0.000000e+00 0.000000e+00
1.918239e+00 0.000000e+00 0.000000e+00
1.933962e+00 0.000000e+00 0.000000e+00
1.949686e+00 0.000000e+00 0.000000e+00
1.965409e+00 0.000000e+00 0.000000e+00
1.981132e+00 0.000000e+00 0.000000e+00
1.996855e+00 0.000000e+00 0.000000e+00
2.012579e+00 0.000000e+00 0.000000e+00
2.028302e+00 0.000000e+00 0.000000e+00
2.044025e+00 0.000000e+00 0.000000e+00
2.059748e+00 0.000000e+00 0.000000e+00
2.075472e+00 0.000000e+00 0.000000e+00
2.091195e+00 0.000000e+00 0.000000e+00
2.106918e+00 0.000000e+00 0.000000e+00
2.122642e+00 0.000000e+00 0.000000e+00
2.138365e+00 0.000000e+00 0.000000e+00
2.154088e+00 0.000000e+00 0.000000e+00
2.169811e+00 0.000000e+00 0.000000e+00
2.185535e+00 0.000000e+00 0.000000e+00
2.201258e+00 0.000000e+00 0.000000e+00
2.216981e+00 0.000000e+00 0.000000e+00
2.232704e+00 0.000000e+00 0.000000e+00
2.248428e+00 0.000000e+00 0.000000e+00
2.264151e+00 0.000000e+00 0.000000e+00
2.279874e+00 0.000000e+00 0.000000e+00
2.295597e+00 0.000000e+00 0.000000e+00
2.311321e+00 0.000000e+00 0.000000e+00
2.327044e+00 0.000000e+00 0.000000e+00
2.342767e+00 0.000000e+00 0.000000e+00
2.358491e+00 0.000000e+00 0.000000e+00
2.374214e+00 0.000000e+00 0.000000e+00
2.389937e+00 0.000000e+00 0.000000e+00
2.405660e+00 0.000000e+00 0.000000e+00
2.421384e+00 0.000000e+00 0.000000e+00
2.437107e+00 0.000000e+00 0.000000e+00
2.452830e+00 0.000000e+00 0.000000e+00
2.468553e+00 0.000000e+00 0.000000e+00
2.484277e+00 0.000000e+00 0.000000e+00
2.500000e+00 0.000000e+00 0.000000e+00
2.515723e+00 0.000000e+00 0.000000e+00
2.531447e+00 0.000000e+00 0.000000e+00
2.547170e+00 0.000000e+00 0.000000e+00
2.562893e+00 0.000000e+00 0.000000e+00
2.578616e+00 0.000000e+00 0.000000e+00
2.594340e+00 0.000000e+00 0.000000e+00
2.610063e+00 0.000000e+00 0.000000e+00
2.625786e+00 0.000000e+00 0.000000e+00
2.641509e+00 0.000000e+00 0.000000e+00
2.657233e+00 0.000000e+00 0.000000e+00
2.672956e+00 0.000000e+00 0.000000e+00
2.688679e+00 0.000000e+00 0.000000e+00
2.704403e+00 0.000000e+00 0.000000e+00
2.720126e+00 0.000000e+00 0.000000e+00
2.735849e+00 0.000000e+00 0.000000e+00
2.751572e+00 0.000000e+00 0.000000e+00
2.767296e+00 0.000000e+00 0.000000e+00
2.783019e+00 0.000000e+00 0.000000e+00
2.798742e+00 0.000000e+00 0.000000e+00
2.814465e+00 0.000000e+00 0.000000e+00
2.830189e+00 0.000000e+00 0.000000e+00
2.845912e+00 0.000000e+00 0.000000e+00
2.861635e+00 0.000000e+00 0.000000e+00
2.877358e+00 0.000000e+00 0.000000e+00
2.893082e+00 0.000000e+00 0.000000e+00
2.908805e+00 0.000000e+00 0.000000e+00
2.924528e+00 0.000000e+00 0.000000e+00
2.940252e+00 0.000000e+00 0.000000e+00
2.955975e+00 0.000000e+00 0.000000e+00
2.971698e+00 0.000000e+00 0.000000e+00
2.987421e+00 0.000000e+00 0.000000e+00
3.003145e+00 0.000000e+00 0.000000e+00
3.018868e+00 0.000000e+00 0.000000e+00
3.034591e+00 0.000000e+00 0.000000e+00
3.050314e+00 0.000000e+00 0.000000e+00
3.066038e+00 0.000000e+00 0.000000e+00
3.081761e+00 0.000000e+00 0.000000e+00
3.097484e+00 0.000000e+00 0.000000e+00
3.113208e+00 0.000000e+00 0.000000e+00
3.128931e+00 0.000000e+00 0.000000e+00
3.144654e+00 0.000000e+00 0.000000e+00
3.160377e+00 0.000000e+00 0.000000e+00
3.176101e+00 0.000000e+00 0.000000e+00
3.191824e+00 0.000000e+00 0.000000e+00
3.207547e+00 0.000000e+00 0.000000e+00
3.223270e+00 0.000000e+00 0.000000e+00
3.238994e+00 0.000000e+00 0.000000e+00
3.254717e+00 0.000000e+00 0.000000e+00
3.270440e+00 0.000000e+00 0.000000e+00
3.286164e+00 0.000000e+00 0.000000e+00
3.301887e+00 0.000000e+00 0.000000e+00
3.317610e+00 0.000000e+00 0.000000e+00
3.333333e+00 0.000000e+00 0.000000e+00
3.349057e+00 0.000000e+00 0.000000e+00
3.364780e+00 0.000000e+00 0.000000e+00
3.380503e+00 0.000000e+00 0.000000e+00
3.396226e+00 0.000000e+00 0.000000e+00
3.411950e+00 0.000000e+00 0.000000e+00
3.427673e+00 0.000000e+00 0.000000e+00
3.443396e+00 0.000000e+00 0.000000e+00
3.459119e+00 0.000000e+00 0.000000e+00
3.474843e+00 0.000000e+00 0.000000e+00
3.490566e+00 0.000000e+00 0.000000e+00
3.506289e+00 0.000000e+00 0.000000e+00
3.522013e+00 0.000000e+00 0.000000e+00
3.537736e+00 0.000000e+00 0.000000e+00
3.553459e+00 0.000000e+00 0.000000e+00
3.569182e+00 0.000000e+00 0.000000e+00
3.584906e+00 0.000000e+00 0.000000e+00
3.600629e+00 0.000000e+00 0.000000e+00
3.616352e+00 0.000000e+00 0.000000e+00
3.632075e+00 0.000000e+00 0.000000e+00
3.647799e+00 0.000000e+00 0.000000e+00
3.663522e+00 0.000000e+00 0.000000e+00
3.679245e+00 0.000000e+00 0.000000e+00
3.694969e+00 0.000000e+00 0.000000e+00
3.710692e+00 0.000000e+00 0.000000e+00
3.726415e+00 0.000000e+00 0.000000e+00
3.742138e+00 0.000000e+00 0.000000e+00
3.757862e+00 0.000000e+00 0.000000e+00
3.773585e+00 0.000000e+00 0.000000e+00
3.789308e+00 0.000000e+00 0.000000e+00
3.805031e+00 0.000000e+00 0.000000e+00
3.820755e+00 0.000000e+00 0.000000e+00
3.836478e+00 0.000000e+00 0.000000e+00
3.852201e+00 0.000000e+00 0.000000e+00
3.867925e+00 0.000000e+00 0.000000e+00
3.883648e+00 0.000000e+00 0.000000e+00
3.899371e+00 0.000000e+00 0.000000e+00
3.915094e+00 0.000000e+00 0.000000e+00
3.930818e+00 0.000000e+00 0.000000e+00
[...]
<PointData>
<DataArray Name="Velocity" type="Float64" format="ascii" NumberOfComponents="3">
0.000000e+00 0.000000e+00 0
0.000000e+00 0.000000e+00 0
0.000000e+00 0.000000e+00 0
-2.426366e-21 0.000000e+00 0
0.000000e+00 0.000000e+00 0
0.000000e+00 0.000000e+00 0
1.142157e-21 0.000000e+00 0
0.000000e+00 0.000000e+00 0
0.000000e+00 0.000000e+00 0
0.000000e+00 0.000000e+00 0
0.000000e+00 0.000000e+00 0
0.000000e+00 0.000000e+00 0
9.399133e-21 0.000000e+00 0
0.000000e+00 0.000000e+00 0
0.000000e+00 0.000000e+00 0
0.000000e+00 0.000000e+00 0
0.000000e+00 0.000000e+00 0
0.000000e+00 0.000000e+00 0
0.000000e+00 0.000000e+00 0
0.000000e+00 0.000000e+00 0
0.000000e+00 0.000000e+00 0
0.000000e+00 0.000000e+00 0
0.000000e+00 0.000000e+00 0
0.000000e+00 0.000000e+00 0
-8.698102e-20 0.000000e+00 0
0.000000e+00 0.000000e+00 0
0.000000e+00 0.000000e+00 0
0.000000e+00 0.000000e+00 0
0.000000e+00 0.000000e+00 0
0.000000e+00 0.000000e+00 0
0.000000e+00 0.000000e+00 0
0.000000e+00 0.000000e+00 0
0.000000e+00 0.000000e+00 0
0.000000e+00 0.000000e+00 0
0.000000e+00 0.000000e+00 0
0.000000e+00 0.000000e+00 0
0.000000e+00 0.000000e+00 0
0.000000e+00 0.000000e+00 0
0.000000e+00 0.000000e+00 0
0.000000e+00 0.000000e+00 0
0.000000e+00 0.000000e+00 0
0.000000e+00 0.000000e+00 0
0.000000e+00 0.000000e+00 0
0.000000e+00 0.000000e+00 0
0.000000e+00 0.000000e+00 0
0.000000e+00 0.000000e+00 0
0.000000e+00 0.000000e+00 0
0.000000e+00 0.000000e+00 0
2.060704e-20 0.000000e+00 0
0.000000e+00 0.000000e+00 0
0.000000e+00 0.000000e+00 0
0.000000e+00 0.000000e+00 0
0.000000e+00 0.000000e+00 0
0.000000e+00 0.000000e+00 0
0.000000e+00 0.000000e+00 0
0.000000e+00 0.000000e+00 0
0.000000e+00 0.000000e+00 0
0.000000e+00 0.000000e+00 0
0.000000e+00 0.000000e+00 0
0.000000e+00 0.000000e+00 0
0.000000e+00 0.000000e+00 0
0.000000e+00 0.000000e+00 0
0.000000e+00 0.000000e+00 0
0.000000e+00 0.000000e+00 0
0.000000e+00 0.000000e+00 0
0.000000e+00 0.000000e+00 0
0.000000e+00 0.000000e+00 0
0.000000e+00 0.000000e+00 0
0.000000e+00 0.000000e+00 0
0.000000e+00 0.000000e+00 0
0.000000e+00 0.000000e+00 0
0.000000e+00 0.000000e+00 0
0.000000e+00 0.000000e+00 0
0.000000e+00 0.000000e+00 0
0.000000e+00 0.000000e+00 0
0.000000e+00 0.000000e+00 0
0.000000e+00 0.000000e+00 0
0.000000e+00 0.000000e+00 0
0.000000e+00 0.000000e+00 0
0.000000e+00 0.000000e+00 0
0.000000e+00 0.000000e+00 0
0.000000e+00 0.000000e+00 0
0.000000e+00 0.000000e+00 0
0.000000e+00 0.000000e+00 0
0.000000e+00 0.000000e+00 0
0.000000e+00 0.000000e+00 0
0.000000e+00 0.000000e+00 0
0.000000e+00 0.000000e+00 0
0.000000e+00 0.000000e+00 0
0.000000e+00 0.000000e+00 0
0.000000e+00 0.000000e+00 0
0.000000e+00 0.000000e+00 0
0.000000e+00 0.000000e+00 0
0.000000e+00 0.000000e+00 0
0.000000e+00 0.000000e+00 0
0.000000e+00 0.000000e+00 0
0.000000e+00 0.000000e+00 0
0.000000e+00 0.000000e+00 0
0.000000e+00 0.000000e+00 0
0.000000e+00 0.000000e+00 0
0.000000e+00 0.000000e+00 0
0.000000e+00 0.000000e+00 0
0.000000e+00 0.000000e+00 0
0.000000e+00 0.000000e+00 0
0.000000e+00 0.000000e+00 0
0.000000e+00 0.000000e+00 0
0.000000e+00 0.000000e+00 0
0.000000e+00 0.000000e+00 0
0.000000e+00 0.000000e+00 0
0.000000e+00 0.000000e+00 0
0.000000e+00 0.000000e+00 0
0.000000e+00 0.000000e+00 0
0.000000e+00 0.000000e+00 0
0.000000e+00 0.000000e+00 0
0.000000e+00 0.000000e+00 0
0.000000e+00 0.000000e+00 0
0.000000e+00 0.000000e+00 0
0.000000e+00 0.000000e+00 0
0.000000e+00 0.000000e+00 0
0.000000e+00 0.000000e+00 0
0.000000e+00 0.000000e+00 0
0.000000e+00 0.000000e+00 0
0.000000e+00 0.000000e+00 0
0.000000e+00 0.000000e+00 0
0.000000e+00 0.000000e+00 0
0.000000e+00 0.000000e+00 0
0.000000e+00 0.000000e+00 0
0.000000e+00 0.000000e+00 0
0.000000e+00 0.000000e+00 0
0.000000e+00 0.000000e+00 0
-8.441342e-20 0.000000e+00 0
0.000000e+00 0.000000e+00 0
0.000000e+00 0.000000e+00 0
0.000000e+00 0.000000e+00 0
1.685801e-20 0.000000e+00 0
0.000000e+00 0.000000e+00 0
0.000000e+00 0.000000e+00 0
0.000000e+00 0.000000e+00 0
8.230639e-20 0.000000e+00 0
0.000000e+00 0.000000e+00 0
0.000000e+00 0.000000e+00 0
0.000000e+00 0.000000e+00 0
1.359523e-19 0.000000e+00 0
0.000000e+00 0.000000e+00 0
0.000000e+00 0.000000e+00 0
0.000000e+00 0.000000e+00 0
1.953944e-19 0.000000e+00 0
0.000000e+00 0.000000e+00 0
0.000000e+00 0.000000e+00 0
0.000000e+00 0.000000e+00 0
-1.608619e-19 0.000000e+00 0
0.000000e+00 0.000000e+00 0
0.000000e+00 0.000000e+00 0
0.000000e+00 0.000000e+00 0
-5.747519e-20 0.000000e+00 0
0.000000e+00 0.000000e+00 0
0.000000e+00 0.000000e+00 0
0.000000e+00 0.000000e+00 0
7.671234e-20 0.000000e+00 0
0.000000e+00 0.000000e+00 0
0.000000e+00 0.000000e+00 0
-1.262864e-19 0.000000e+00 0
0.000000e+00 0.000000e+00 0
0.000000e+00 0.000000e+00 0
0.000000e+00 0.000000e+00 0
6.614750e-20 0.000000e+00 0
0.000000e+00 0.000000e+00 0
0.000000e+00 0.000000e+00 0
0.000000e+00 0.000000e+00 0
-1.421406e-19 0.000000e+00 0
0.000000e+00 0.000000e+00 0
0.000000e+00 0.000000e+00 0
0.000000e+00 0.000000e+00 0
1.146434e-19 0.000000e+00 0
0.000000e+00 0.000000e+00 0
0.000000e+00 0.000000e+00 0
0.000000e+00 0.000000e+00 0
-3.315648e-20 0.000000e+00 0
0.000000e+00 0.000000e+00 0
0.000000e+00 0.000000e+00 0
0.000000e+00 0.000000e+00 0
-1.545236e-19 0.000000e+00 0
0.000000e+00 0.000000e+00 0
0.000000e+00 0.000000e+00 0
0.000000e+00 0.000000e+00 0
1.813344e-19 0.000000e+00 0
0.000000e+00 0.000000e+00 0
0.000000e+00 0.000000e+00 0
0.000000e+00 0.000000e+00 0
1.041407e-19 0.000000e+00 0
0.000000e+00 0.000000e+00 0
0.000000e+00 0.000000e+00 0
5.805974e-20 0.000000e+00 0
0.000000e+00 0.000000e+00 0
0.000000e+00 0.000000e+00 0
0.000000e+00 0.000000e+00 0
1.018767e-20 0.000000e+00 0
0.000000e+00 0.000000e+00 0
0.000000e+00 0.000000e+00 0
0.000000e+00 0.000000e+00 0
-2.450599e-20 0.000000e+00 0
0.000000e+00 0.000000e+00 0
0.000000e+00 0.000000e+00 0
0.000000e+00 0.000000e+00 0
-4.834446e-20 0.000000e+00 0
0.000000e+00 0.000000e+00 0
0.000000e+00 0.000000e+00 0
0.000000e+00 0.000000e+00 0
-6.340336e-20 0.000000e+00 0
0.000000e+00 0.000000e+00 0
0.000000e+00 0.000000e+00 0
0.000000e+00 0.000000e+00 0
-7.150338e-20 0.000000e+00 0
0.000000e+00 0.000000e+00 0
0.000000e+00 0.000000e+00 0
0.000000e+00 0.000000e+00 0
-7.421225e-20 0.000000e+00 0
0.000000e+00 0.000000e+00 0
0.000000e+00 0.000000e+00 0
0.000000e+00 0.000000e+00 0
-7.286744e-20 0.000000e+00 0
0.000000e+00 0.000000e+00 0
0.000000e+00 0.000000e+00 0
0.000000e+00 0.000000e+00 0
-6.861243e-20 0.000000e+00 0
0.000000e+00 0.000000e+00 0
0.000000e+00 0.000000e+00 0
-6.407525e-20 0.000000e+00 0
0.000000e+00 0.000000e+00 0
0.000000e+00 0.000000e+00 0
0.000000e+00 0.000000e+00 0
-5.684113e-20 0.000000e+00 0
0.000000e+00 0.000000e+00 0
0.000000e+00 0.000000e+00 0
0.000000e+00 0.000000e+00 0
-4.882026e-20 0.000000e+00 0
0.000000e+00 0.000000e+00 0
0.000000e+00 0.000000e+00 0
0.000000e+00 0.000000e+00 0
-4.050219e-20 0.000000e+00 0
0.000000e+00 0.000000e+00 0
0.000000e+00 0.000000e+00 0
0.000000e+00 0.000000e+00 0
-3.225881e-20 0.000000e+00 0
0.000000e+00 0.000000e+00 0
0.000000e+00 0.000000e+00 0
0.000000e+00 0.000000e+00 0
-2.436029e-20 0.000000e+00 0
0.000000e+00 0.000000e+00 0
0.000000e+00 0.000000e+00 0
0.000000e+00 0.000000e+00 0
-1.699266e-20 0.000000e+00 0
0.000000e+00 0.000000e+00 0
0.000000e+00 0.000000e+00 0
0.000000e+00 0.000000e+00 0
0.000000e+00 0.000000e+00 0
0.000000e+00 0.000000e+00 0
0.000000e+00 0.000000e+00 0
0.000000e+00 0.000000e+00 0
0.000000e+00 0.000000e+00 0
0.000000e+00 0.000000e+00 0
0.000000e+00 0.000000e+00 0
0.000000e+00 0.000000e+00 0
0.000000e+00 0.000000e+00 0
0.000000e+00 0.000000e+00 0
0.000000e+00 0.000000e+00 0
0.000000e+00 0.000000e+00 0
0.000000e+00 0.000000e+00 0
0.000000e+00 0.000000e+00 0
0.000000e+00 0.000000e+00 0
0.000000e+00 0.000000e+00 0
0.000000e+00 0.000000e+00 0
0.000000e+00 0.000000e+00 0
0.000000e+00 0.000000e+00 0
0.000000e+00 0.000000e+00 0
0.000000e+00 0.000000e+00 0
0.000000e+00 0.000000e+00 0
0.000000e+00 0.000000e+00 0
0.000000e+00 0.000000e+00 0
0.000000e+00 0.000000e+00 0
0.000000e+00 0.000000e+00 0
0.000000e+00 0.000000e+00 0
0.000000e+00 0.000000e+00 0
0.000000e+00 0.000000e+00 0
0.000000e+00 0.000000e+00 0
0.000000e+00 0.000000e+00 0
0.000000e+00 0.000000e+00 0
0.000000e+00 0.000000e+00 0
0.000000e+00 0.000000e+00 0
0.000000e+00 0.000000e+00 0
0.000000e+00 0.000000e+00 0
0.000000e+00 0.000000e+00 0
0.000000e+00 0.000000e+00 0
0.000000e+00 0.000000e+00 0
0.000000e+00 0.000000e+00 0
0.000000e+00 0.000000e+00 0
0.000000e+00 0.000000e+00 0
0.000000e+00 0.000000e+00 0
0.000000e+00 0.000000e+00 0
0.000000e+00 0.000000e+00 0
0.000000e+00 0.000000e+00 0
0.000000e+00 0.000000e+00 0
0.000000e+00 0.000000e+00 0
0.000000e+00 0.000000e+00 0
0.000000e+00 0.000000e+00 0
0.000000e+00 0.000000e+00 0
0.000000e+00 0.000000e+00 0
0.000000e+00 0.000000e+00 0
0.000000e+00 0.000000e+00 0
0.000000e+00 0.000000e+00 0
0.000000e+00 0.000000e+00 0
0.000000e+00 0.000000e+00 0
0.000000e+00 0.000000e+00 0
0.000000e+00 0.000000e+00 0
0.000000e+00 0.000000e+00 0
0.000000e+00 0.000000e+00 0
0.000000e+00 0.000000e+00 0
0.000000e+00 0.000000e+00 0
0.000000e+00 0.000000e+00 0
0.000000e+00 0.000000e+00 0
-3.057281e-04 -6.754190e-04 0
-6.135269e-04 -1.348204e-03 0
-9.243295e-04 -2.013516e-03 0
-1.237997e-03 -2.664120e-03 0
-1.553462e-03 -3.290848e-03 0
-1.868887e-03 -3.883167e-03 0
-2.181866e-03 -4.429858e-03 0
-2.489640e-03 -4.919779e-03 0
-2.789354e-03 -5.342633e-03 0
-3.078305e-03 -5.689694e-03 0
-3.354188e-03 -5.954405e-03 0
-3.615317e-03 -6.132809e-03 0
-3.860805e-03 -6.223754e-03 0
-4.090697e-03 -6.228888e-03 0
-4.306072e-03 -6.152444e-03 0
-4.509100e-03 -6.000863e-03 0
-4.703108e-03 -5.782309e-03 0
-4.892638e-03 -5.506126e-03 0
-5.083578e-03 -5.182289e-03 0
-5.283381e-03 -4.820904e-03 0
-5.501463e-03 -4.431768e-03 0
-5.749885e-03 -4.024025e-03 0
-6.044533e-03 -3.605909e-03 0
-6.407135e-03 -3.184573e-03 0
-6.868874e-03 -2.765997e-03 0
-7.477080e-03 -2.354950e-03 0
-8.308457e-03 -1.954996e-03 0
-9.497171e-03 -1.568501e-03 0
-1.129989e-02 -1.196627e-03 0
-1.426103e-02 -8.392446e-04 0
-1.967322e-02 -4.947074e-04 0
-3.095679e-02 -1.596338e-04 0
0.000000e+00 8.639736e-20 0
-6.498233e-06 6.250785e-06 0
-5.294388e-05 3.316384e-05 0
-1.421257e-04 5.978161e-05 0
-2.670896e-04 8.021529e-05 0
-4.177819e-04 9.352050e-05 0
-5.838448e-04 1.002617e-04 0
-7.557181e-04 1.013987e-04 0
-9.250370e-04 9.793021e-05 0
-1.084743e-03 9.077272e-05 0
-1.229069e-03 8.071949e-05 0
-1.353454e-03 6.843680e-05 0
-1.454420e-03 5.448333e-05 0
-1.529433e-03 3.933873e-05 0
-1.576761e-03 2.342789e-05 0
-1.595364e-03 7.132147e-06 0
-1.584800e-03 -9.211650e-06 0
-1.545148e-03 -2.531987e-05 0
-1.476943e-03 -4.096587e-05 0
-1.381107e-03 -5.597537e-05 0
-1.258874e-03 -7.021753e-05 0
-1.111713e-03 -8.359182e-05 0
-9.412665e-04 -9.601822e-05 0
-7.492966e-04 -1.074341e-04 0
-5.376511e-04 -1.177959e-04 0
-3.082302e-04 -1.270812e-04 0
-6.295969e-05 -1.352867e-04 0
1.962185e-04 -1.424179e-04 0
4.673762e-04 -1.484917e-04 0
7.486442e-04 -1.535441e-04 0
1.038223e-03 -1.576218e-04 0
1.334391e-03 -1.607737e-04 0
1.635510e-03 -1.630515e-04 0
1.940036e-03 -1.645083e-04 0
2.246522e-03 -1.651969e-04 0
2.553623e-03 -1.651689e-04 0
2.860093e-03 -1.644769e-04 0
3.164786e-03 -1.631754e-04 0
3.466646e-03 -1.613222e-04 0
3.764714e-03 -1.589759e-04 0
4.058124e-03 -1.561925e-04 0
4.346108e-03 -1.530223e-04 0
4.627992e-03 -1.495095e-04 0
4.903188e-03 -1.456944e-04 0
5.171185e-03 -1.416172e-04 0
5.431545e-03 -1.373193e-04 0
5.683897e-03 -1.328429e-04 0
5.927936e-03 -1.282280e-04 0
6.163421e-03 -1.235096e-04 0
6.390174e-03 -1.187166e-04 0
6.608075e-03 -1.138732e-04 0
6.817051e-03 -1.090019e-04 0
7.017073e-03 -1.041253e-04 0
7.208147e-03 -9.926721e-05 0
7.390316e-03 -9.445040e-05 0
7.563655e-03 -8.969473e-05 0
7.728274e-03 -8.501530e-05 0
7.884312e-03 -8.042245e-05 0
8.031935e-03 -7.592361e-05 0
8.171327e-03 -7.152598e-05 0
8.302685e-03 -6.723850e-05 0
8.426217e-03 -6.307207e-05 0
8.542142e-03 -5.903764e-05 0
8.650691e-03 -5.514321e-05 0
8.752105e-03 -5.139169e-05 0
8.846640e-03 -4.778101e-05 0
8.934558e-03 -4.430683e-05 0
9.016121e-03 -4.096641e-05 0
9.091587e-03 -3.776118e-05 0
9.161208e-03 -3.469628e-05 0
9.225234e-03 -3.177725e-05 0
9.283915e-03 -2.900596e-05 0
9.337506e-03 -2.637843e-05 0
9.386262e-03 -2.388618e-05 0
9.430437e-03 -2.152016e-05 0
9.470274e-03 -1.927474e-05 0
9.506006e-03 -1.714912e-05 0
9.537854e-03 -1.514548e-05 0
9.566033e-03 -1.326518e-05 0
9.590757e-03 -1.150581e-05 0
9.612237e-03 -9.860872e-06 0
9.630680e-03 -8.322014e-06 0
9.646285e-03 -6.882039e-06 0
9.659239e-03 -5.536622e-06 0
9.669721e-03 -4.283887e-06 0
9.677900e-03 -3.122561e-06 0
9.683940e-03 -2.050218e-06 0
9.688001e-03 -1.062689e-06 0
9.690234e-03 -1.544446e-07 0
9.690784e-03 6.814037e-07 0
9.689785e-03 1.449957e-06 0
9.687363e-03 2.153338e-06 0
9.683637e-03 2.793832e-06 0
9.678725e-03 3.374516e-06 0
9.672735e-03 3.898709e-06 0
9.665774e-03 4.369441e-06 0
9.657938e-03 4.789301e-06 0
9.649319e-03 5.160746e-06 0
9.640006e-03 5.486554e-06 0
9.630079e-03 5.770012e-06 0
9.619618e-03 6.014641e-06 0
9.608693e-03 6.223678e-06 0
9.597373e-03 6.399703e-06 0
9.585720e-03 6.544663e-06 0
9.573791e-03 6.660235e-06 0
9.561640e-03 6.748213e-06 0
9.549317e-03 6.810658e-06 0
9.536869e-03 6.849765e-06 0
9.524339e-03 6.867618e-06 0
9.511766e-03 6.866033e-06 0
9.499187e-03 6.846596e-06 0
9.486636e-03 6.810786e-06 0
9.474143e-03 6.760072e-06 0
9.461737e-03 6.695877e-06 0
9.449442e-03 6.619492e-06 0
9.437282e-03 6.532013e-06 0
9.425278e-03 6.434395e-06 0
9.413447e-03 6.327570e-06 0
9.401807e-03 6.212555e-06 0
9.390374e-03 6.090457e-06 0
9.379159e-03 5.962382e-06 0
9.368176e-03 5.829307e-06 0
9.357435e-03 5.691992e-06 0
9.346943e-03 5.550999e-06 0
9.336708e-03 5.406784e-06 0
9.326736e-03 5.259815e-06 0
9.317032e-03 5.110644e-06 0
9.307599e-03 4.959913e-06 0
9.298441e-03 4.808290e-06 0
9.289560e-03 4.656376e-06 0
9.280957e-03 4.504640e-06 0
9.272631e-03 4.353404e-06 0
9.264584e-03 4.202890e-06 0
9.256812e-03 4.053294e-06 0
9.249315e-03 3.904860e-06 0
9.242091e-03 3.757897e-06 0
9.235136e-03 3.612757e-06 0
9.228447e-03 3.469764e-06 0
9.222021e-03 3.329163e-06 0
9.215854e-03 3.191098e-06 0
9.209941e-03 3.055647e-06 0
9.204278e-03 2.922870e-06 0
9.198859e-03 2.792855e-06 0
9.193680e-03 2.665732e-06 0
9.188734e-03 2.541648e-06 0
9.184018e-03 2.420732e-06 0
9.179524e-03 2.303059e-06 0
9.175248e-03 2.188657e-06 0
9.171183e-03 2.077521e-06 0
9.167323e-03 1.969642e-06 0
9.163662e-03 1.865028e-06 0
9.160195e-03 1.763704e-06 0
9.156915e-03 1.665694e-06 0
9.153816e-03 1.571004e-06 0
9.150892e-03 1.479620e-06 0
9.148137e-03 1.391504e-06 0
9.145545e-03 1.306609e-06 0
9.143110e-03 1.224890e-06 0
9.140827e-03 1.146307e-06 0
9.138689e-03 1.070824e-06 0
9.136691e-03 9.983978e-07 0
9.134826e-03 9.289792e-07 0
9.133091e-03 8.625093e-07 0
9.131479e-03 7.989238e-07 0
9.129985e-03 7.381569e-07 0
9.128603e-03 6.801434e-07 0
9.127329e-03 6.248187e-07 0
9.126158e-03 5.721172e-07 0
9.125085e-03 5.219712e-07 0
9.124105e-03 4.743107e-07 0
9.123213e-03 4.290641e-07 0
9.122405e-03 3.861591e-07 0
9.121677e-03 3.455234e-07 0
9.121025e-03 3.070845e-07 0
9.120444e-03 2.707699e-07 0
9.119931e-03 2.365074e-07 0
9.119481e-03 2.042253e-07 0
9.119092e-03 1.738527e-07 0
9.118759e-03 1.453198e-07 0
9.118480e-03 1.185573e-07 0
9.118250e-03 9.349492e-08 0
9.118067e-03 7.006175e-08 0
9.117928e-03 4.818621e-08 0
9.117829e-03 2.779879e-08 0
9.117769e-03 8.838773e-09 0
9.117744e-03 -8.724006e-09 0
9.117752e-03 -2.490817e-08 0
9.117790e-03 -3.977418e-08 0
9.117856e-03 -5.340585e-08 0
9.117948e-03 -6.587759e-08 0
9.118063e-03 -7.725785e-08 0
9.118200e-03 -8.760900e-08 0
9.118356e-03 -9.698640e-08 0
9.118529e-03 -1.054386e-07 0
9.118719e-03 -1.130097e-07 0
9.118923e-03 -1.197424e-07 0
9.119139e-03 -1.256805e-07 0
9.119367e-03 -1.308694e-07 0
9.119605e-03 -1.353545e-07 0
9.119851e-03 -1.391787e-07 0
9.120105e-03 -1.423813e-07 0
9.120364e-03 -1.449983e-07 0
9.120629e-03 -1.470640e-07 0
9.120898e-03 -1.486121e-07 0
9.121169e-03 -1.496769e-07 0
9.121443e-03 -1.502926e-07 0
9.121719e-03 -1.504919e-07 0
9.121994e-03 -1.503059e-07 0
9.122270e-03 -1.497633e-07 0
9.122545e-03 -1.488915e-07 0
9.122818e-03 -1.477167e-07 0
9.123089e-03 -1.462642e-07 0
9.123358e-03 -1.445584e-07 0
9.123624e-03 -1.426225e-07 0
9.123886e-03 -1.404787e-07 0
9.124145e-03 -1.381478e-07 0
9.124399e-03 -1.356499e-07 0
9.124649e-03 -1.330039e-07 0
9.124894e-03 -1.302275e-07 0
9.125134e-03 -1.273376e-07 0
9.125368e-03 -1.243496e-07 0
9.125597e-03 -1.212782e-07 0
9.125821e-03 -1.181371e-07 0
9.126039e-03 -1.149397e-07 0
9.126251e-03 -1.116983e-07 0
9.126457e-03 -1.084245e-07 0
9.126657e-03 -1.051289e-07 0
9.126851e-03 -1.018211e-07 0
9.127040e-03 -9.850997e-08 0
9.127222e-03 -9.520419e-08 0
9.127398e-03 -9.191177e-08 0
9.127567e-03 -8.864011e-08 0
9.127731e-03 -8.539581e-08 0
9.127889e-03 -8.218474e-08 0
9.128041e-03 -7.901214e-08 0
9.128188e-03 -7.588286e-08 0
9.128328e-03 -7.280139e-08 0
9.128463e-03 -6.977194e-08 0
9.128592e-03 -6.679832e-08 0
9.128716e-03 -6.388389e-08 0
9.128834e-03 -6.103147e-08 0
9.128947e-03 -5.824335e-08 0
9.129055e-03 -5.552144e-08 0
9.129158e-03 -5.286740e-08 0
9.129256e-03 -5.028271e-08 0
9.129350e-03 -4.776869e-08 0
9.129438e-03 -4.532639e-08 0
9.129522e-03 -4.295659e-08 0
9.129602e-03 -4.065973e-08 0
9.129678e-03 -3.843608e-08 0
9.129749e-03 -3.628571e-08 0
9.129817e-03 -3.420852e-08 0
9.129880e-03 -3.220427e-08 0
9.129940e-03 -3.027258e-08 0
9.129997e-03 -2.841302e-08 0
9.130050e-03 -2.662512e-08 0
9.130099e-03 -2.490836e-08 0
9.130146e-03 -2.326214e-08 0
9.130189e-03 -2.168585e-08 0
9.130230e-03 -2.017879e-08 0
9.130267e-03 -1.874034e-08 0
9.130302e-03 -1.737004e-08 0
9.130335e-03 -1.606760e-08 0
9.130365e-03 -1.483303e-08 0
9.130393e-03 -1.366664e-08 0
9.130419e-03 -1.256911e-08 0
9.130442e-03 -1.154163e-08 0
9.130464e-03 -1.058602e-08 0
9.130484e-03 -9.704915e-09 0
9.130503e-03 -8.902066e-09 0
9.130520e-03 -8.182636e-09 0
9.130535e-03 -7.553604e-09 0
9.130550e-03 -7.024308e-09 0
9.130563e-03 -6.607236e-09 0
9.130576e-03 -6.319168e-09 0
9.130589e-03 -6.183000e-09 0
9.130601e-03 -6.230780e-09 0
9.130613e-03 -6.509217e-09 0
9.130626e-03 -7.090195e-09 0
9.130640e-03 -8.092020e-09 0
9.130656e-03 -9.723402e-09 0
9.130675e-03 -1.237105e-08 0
9.130697e-03 -1.674543e-08 0
9.130725e-03 -2.395010e-08 0
9.130759e-03 -3.436419e-08 0
9.130759e-03 -4.030701e-08 0
0.000000e+00 0.000000e+00 0
-6.079903e-04 -1.350517e-03 0
-1.219775e-03 -2.695126e-03 0
-1.837070e-03 -4.023884e-03 0
-2.459501e-03 -5.322146e-03 0
-3.084876e-03 -6.571477e-03 0
-3.709520e-03 -7.750813e-03 0
-4.328663e-03 -8.837837e-03 0
-4.936895e-03 -9.810494e-03 0
-5.528652e-03 -1.064853e-02 0
-6.098713e-03 -1.133490e-02 0
-6.642675e-03 -1.185695e-02 0
-7.157363e-03 -1.220721e-02 0
-7.641167e-03 -1.238374e-02 0
-8.094292e-03 -1.239011e-02 0
-8.518927e-03 -1.223494e-02 0
-8.919355e-03 -1.193114e-02 0
-9.302048e-03 -1.149494e-02 0
-9.675783e-03 -1.094483e-02 0
-1.005185e-02 -1.030051e-02 0
-1.044445e-02 -9.581912e-03 0
-1.087137e-02 -8.808345e-03 0
-1.135513e-02 -7.997839e-03 0
-1.192494e-02 -7.166645e-03 0
-1.261992e-02 -6.328905e-03 0
-1.349456e-02 -5.496477e-03 0
-1.462817e-02 -4.678861e-03 0
-1.614162e-02 -3.883223e-03 0
-1.822786e-02 -3.114451e-03 0
-2.120759e-02 -2.375238e-03 0
-2.562664e-02 -1.666193e-03 0
-3.239353e-02 -9.861397e-04 0
-4.279243e-02 -3.330414e-04 0
0.000000e+00 -1.846532e-19 0
-3.303704e-05 5.404646e-05 0
-1.368018e-04 1.391012e-04 0
-3.071832e-04 2.198692e-04 0
-5.325729e-04 2.830516e-04 0
-7.976974e-04 3.251256e-04 0
-1.086356e-03 3.466721e-04 0
-1.383034e-03 3.498558e-04 0
-1.673746e-03 3.373304e-04 0
-1.946409e-03 3.117686e-04 0
-2.190945e-03 2.756700e-04 0
-2.399219e-03 2.312966e-04 0
-2.564897e-03 1.806687e-04 0
-2.683268e-03 1.255803e-04 0
-2.751061e-03 6.761508e-05 0
-2.766281e-03 8.155483e-06 0
-2.728055e-03 -5.161431e-05 0
-2.636482e-03 -1.106966e-04 0
-2.492505e-03 -1.682624e-04 0
-2.297763e-03 -2.236371e-04 0
-2.054456e-03 -2.762804e-04 0
-1.765221e-03 -3.257671e-04 0
-1.433026e-03 -3.717719e-04 0
-1.061090e-03 -4.140609e-04 0
-6.528028e-04 -4.524842e-04 0
-2.116610e-04 -4.869662e-04 0