<?xml version="1.0"?>
<VTKFile type="StructuredGrid">
<StructuredGrid WholeExtent="0 38 0 6 0 0 ">
<Piece Extent="0 38 0 6 0 0 ">
<Points>
<DataArray type="Float64" format="ascii" NumberOfComponents="3">
0.000000e+00 0.000000e+00 0.000000e+00
1.315789e-01 0.000000e+00 0.000000e+00
2.631579e-01 0.000000e+00 0.000000e+00
3.947368e-01 0.000000e+00 0.000000e+00
5.263158e-01 0.000000e+00 0.000000e+00
6.578947e-01 0.000000e+00 0.000000e+00
7.894737e-01 0.000000e+00 0.000000e+00
9.210526e-01 0.000000e+00 0.000000e+00
1.052632e+00 0.000000e+00 0.000000e+00
1.184211e+00 0.000000e+00 0.000000e+00
1.315789e+00 0.000000e+00 0.000000e+00
1.447368e+00 0.000000e+00 0.000000e+00
1.578947e+00 0.000000e+00 0.000000e+00
1.710526e+00 0.000000e+00 0.000000e+00
1.842105e+00 0.000000e+00 0.000000e+00
1.973684e+00 0.000000e+00 0.000000e+00
2.105263e+00 0.000000e+00 0.000000e+00
2.236842e+00 0.000000e+00 0.000000e+00
2.368421e+00 0.000000e+00 0.000000e+00
2.500000e+00 0.000000e+00 0.000000e+00
2.631579e+00 0.000000e+00 0.000000e+00
2.763158e+00 0.000000e+00 0.000000e+00
2.894737e+00 0.000000e+00 0.000000e+00
3.026316e+00 0.000000e+00 0.000000e+00
3.157895e+00 0.000000e+00 0.000000e+00
3.289474e+00 0.000000e+00 0.000000e+00
3.421053e+00 0.000000e+00 0.000000e+00
3.552632e+00 0.000000e+00 0.000000e+00
3.684211e+00 0.000000e+00 0.000000e+00
3.815789e+00 0.000000e+00 0.000000e+00
3.947368e+00 0.000000e+00 0.000000e+00
4.078947e+00 0.000000e+00 0.000000e+00
4.210526e+00 0.000000e+00 0.000000e+00
4.342105e+00 0.000000e+00 0.000000e+00
4.473684e+00 0.000000e+00 0.000000e+00
4.605263e+00 0.000000e+00 0.000000e+00
4.736842e+00 0.000000e+00 0.000000e+00
4.868421e+00 0.000000e+00 0.000000e+00
5.000000e+00 0.000000e+00 0.000000e+00
0.000000e+00 1.666667e-01 0.000000e+00
1.315789e-01 1.666667e-01 0.000000e+00
2.631579e-01 1.666667e-01 0.000000e+00
3.947368e-01 1.666667e-01 0.000000e+00
5.263158e-01 1.666667e-01 0.000000e+00
6.578947e-01 1.666667e-01 0.000000e+00
7.894737e-01 1.666667e-01 0.000000e+00
9.210526e-01 1.666667e-01 0.000000e+00
1.052632e+00 1.666667e-01 0.000000e+00
1.184211e+00 1.666667e-01 0.000000e+00
1.315789e+00 1.666667e-01 0.000000e+00
1.447368e+00 1.666667e-01 0.000000e+00
1.578947e+00 1.666667e-01 0.000000e+00
1.710526e+00 1.666667e-01 0.000000e+00
1.842105e+00 1.666667e-01 0.000000e+00
1.973684e+00 1.666667e-01 0.000000e+00
2.105263e+00 1.666667e-01 0.000000e+00
2.236842e+00 1.666667e-01 0.000000e+00
2.368421e+00 1.666667e-01 0.000000e+00
2.500000e+00 1.666667e-01 0.000000e+00
2.631579e+00 1.666667e-01 0.000000e+00
2.763158e+00 1.666667e-01 0.000000e+00
2.894737e+00 1.666667e-01 0.000000e+00
3.026316e+00 1.666667e-01 0.000000e+00
3.157895e+00 1.666667e-01 0.000000e+00
3.289474e+00 1.666667e-01 0.000000e+00
3.421053e+00 1.666667e-01 0.000000e+00
3.552632e+00 1.666667e-01 0.000000e+00
3.684211e+00 1.666667e-01 0.000000e+00
3.815789e+00 1.666667e-01 0.000000e+00
3.947368e+00 1.666667e-01 0.000000e+00
4.078947e+00 1.666667e-01 0.000000e+00
4.210526e+00 1.666667e-01 0.000000e+00
4.342105e+00 1.666667e-01 0.000000e+00
4.473684e+00 1.666667e-01 0.000000e+00
4.605263e+00 1.666667e-01 0.000000e+00
4.736842e+00 1.666667e-01 0.000000e+00
4.868421e+00 1.666667e-01 0.000000e+00
5.000000e+00 1.666667e-01 0.000000e+00
0.000000e+00 3.333333e-01 0.000000e+00
1.315789e-01 3.333333e-01 0.000000e+00
2.631579e-01 3.333333e-01 0.000000e+00
3.947368e-01 3.333333e-01 0.000000e+00
5.263158e-01 3.333333e-01 0.000000e+00
6.578947e-01 3.333333e-01 0.000000e+00
7.894737e-01 3.333333e-01 0.000000e+00
9.210526e-01 3.333333e-01 0.000000e+00
1.052632e+00 3.333333e-01 0.000000e+00
1.184211e+00 3.333333e-01 0.000000e+00
1.315789e+00 3.333333e-01 0.000000e+00
1.447368e+00 3.333333e-01 0.000000e+00
1.578947e+00 3.333333e-01 0.000000e+00
1.710526e+00 3.333333e-01 0.000000e+00
1.842105e+00 3.333333e-01 0.000000e+00
1.973684e+00 3.333333e-01 0.000000e+00
2.105263e+00 3.333333e-01 0.000000e+00
2.236842e+00 3.333333e-01 0.000000e+00
2.368421e+00 3.333333e-01 0.000000e+00
2.500000e+00 3.333333e-01 0.000000e+00
2.631579e+00 3.333333e-01 0.000000e+00
2.763158e+00 3.333333e-01 0.000000e+00
2.894737e+00 3.333333e-01 0.000000e+00
3.026316e+00 3.333333e-01 0.000000e+00
3.157895e+00 3.333333e-01 0.000000e+00
3.289474e+00 3.333333e-01 0.000000e+00
3.421053e+00 3.333333e-01 0.000000e+00
3.552632e+00 3.333333e-01 0.000000e+00
3.684211e+00 3.333333e-01 0.000000e+00
3.815789e+00 3.333333e-01 0.000000e+00
3.947368e+00 3.333333e-01 0.000000e+00
4.078947e+00 3.333333e-01 0.000000e+00
4.210526e+00 3.333333e-01 0.000000e+00
4.342105e+00 3.333333e-01 0.000000e+00
4.473684e+00 3.333333e-01 0.000000e+00
4.605263e+00 3.333333e-01 0.000000e+00
4.736842e+00 3.333333e-01 0.000000e+00
4.868421e+00 3.333333e-01 0.000000e+00
5.000000e+00 3.333333e-01 0.000000e+00
0.000000e+00 5.000000e-01 0.000000e+00
1.315789e-01 5.000000e-01 0.000000e+00
2.631579e-01 5.000000e-01 0.000000e+00
3.947368e-01 5.000000e-01 0.000000e+00
5.263158e-01 5.000000e-01 0.000000e+00
6.578947e-01 5.000000e-01 0.000000e+00
7.894737e-01 5.000000e-01 0.000000e+00
9.210526e-01 5.000000e-01 0.000000e+00
1.052632e+00 5.000000e-01 0.000000e+00
1.184211e+00 5.000000e-01 0.000000e+00
1.315789e+00 5.000000e-01 0.000000e+00
1.447368e+00 5.000000e-01 0.000000e+00
1.578947e+00 5.000000e-01 0.000000e+00
1.710526e+00 5.000000e-01 0.000000e+00
1.842105e+00 5.000000e-01 0.000000e+00
1.973684e+00 5.000000e-01 0.000000e+00
2.105263e+00 5.000000e-01 0.000000e+00
2.236842e+00 5.000000e-01 0.000000e+00
2.368421e+00 5.000000e-01 0.000000e+00
2.500000e+00 5.000000e-01 0.000000e+00
2.631579e+00 5.000000e-01 0.000000e+00
2.763158e+00 5.000000e-01 0.000000e+00
2.894737e+00 5.000000e-01 0.000000e+00
3.026316e+00 5.000000e-01 0.000000e+00
3.157895e+00 5.000000e-01 0.000000e+00
3.289474e+00 5.000000e-01 0.000000e+00
3.421053e+00 5.000000e-01 0.000000e+00
3.552632e+00 5.000000e-01 0.000000e+00
3.684211e+00 5.000000e-01 0.000000e+00
3.815789e+00 5.000000e-01 0.000000e+00
3.947368e+00 5.000000e-01 0.000000e+00
4.078947e+00 5.000000e-01 0.000000e+00
4.210526e+00 5.000000e-01 0.000000e+00
4.342105e+00 5.000000e-01 0.000000e+00
4.473684e+00 5.000000e-01 0.000000e+00
4.605263e+00 5.000000e-01 0.000000e+00
4.736842e+00 5.000000e-01 0.000000e+00
4.868421e+00 5.000000e-01 0.000000e+00
5.000000e+00 5.000000e-01 0.000000e+00
0.000000e+00 6.666667e-01 0.000000e+00
1.315789e-01 6.666667e-01 0.000000e+00
2.631579e-01 6.666667e-01 0.000000e+00
3.947368e-01 6.666667e-01 0.000000e+00
5.263158e-01 6.666667e-01 0.000000e+00
6.578947e-01 6.666667e-01 0.000000e+00
7.894737e-01 6.666667e-01 0.000000e+00
9.210526e-01 6.666667e-01 0.000000e+00
1.052632e+00 6.666667e-01 0.000000e+00
1.184211e+00 6.666667e-01 0.000000e+00
1.315789e+00 6.666667e-01 0.000000e+00
1.447368e+00 6.666667e-01 0.000000e+00
1.578947e+00 6.666667e-01 0.000000e+00
1.710526e+00 6.666667e-01 0.000000e+00
1.842105e+00 6.666667e-01 0.000000e+00
1.973684e+00 6.666667e-01 0.000000e+00
2.105263e+00 6.666667e-01 0.000000e+00
2.236842e+00 6.666667e-01 0.000000e+00
2.368421e+00 6.666667e-01 0.000000e+00
2.500000e+00 6.666667e-01 0.000000e+00
2.631579e+00 6.666667e-01 0.000000e+00
2.763158e+00 6.666667e-01 0.000000e+00
2.894737e+00 6.666667e-01 0.000000e+00
3.026316e+00 6.666667e-01 0.000000e+00
3.157895e+00 6.666667e-01 0.000000e+00
3.289474e+00 6.666667e-01 0.000000e+00
3.421053e+00 6.666667e-01 0.000000e+00
3.552632e+00 6.666667e-01 0.000000e+00
3.684211e+00 6.666667e-01 0.000000e+00
3.815789e+00 6.666667e-01 0.000000e+00
3.947368e+00 6.666667e-01 0.000000e+00
4.078947e+00 6.666667e-01 0.000000e+00
4.210526e+00 6.666667e-01 0.000000e+00
4.342105e+00 6.666667e-01 0.000000e+00
4.473684e+00 6.666667e-01 0.000000e+00
4.605263e+00 6.666667e-01 0.000000e+00
4.736842e+00 6.666667e-01 0.000000e+00
4.868421e+00 6.666667e-01 0.000000e+00
5.000000e+00 6.666667e-01 0.000000e+00
0.000000e+00 8.333333e-01 0.000000e+00
1.315789e-01 8.333333e-01 0.000000e+00
2.631579e-01 8.333333e-01 0.000000e+00
3.947368e-01 8.333333e-01 0.000000e+00
5.263158e-01 8.333333e-01 0.000000e+00
6.578947e-01 8.333333e-01 0.000000e+00
7.894737e-01 8.333333e-01 0.000000e+00
9.210526e-01 8.333333e-01 0.000000e+00
1.052632e+00 8.333333e-01 0.000000e+00
1.184211e+00 8.333333e-01 0.000000e+00
1.315789e+00 8.333333e-01 0.000000e+00
1.447368e+00 8.333333e-01 0.000000e+00
1.578947e+00 8.333333e-01 0.000000e+00
1.710526e+00 8.333333e-01 0.000000e+00
1.842105e+00 8.333333e-01 0.000000e+00
1.973684e+00 8.333333e-01 0.000000e+00
2.105263e+00 8.333333e-01 0.000000e+00
2.236842e+00 8.333333e-01 0.000000e+00
2.368421e+00 8.333333e-01 0.000000e+00
2.500000e+00 8.333333e-01 0.000000e+00
2.631579e+00 8.333333e-01 0.000000e+00
2.763158e+00 8.333333e-01 0.000000e+00
2.894737e+00 8.333333e-01 0.000000e+00
3.026316e+00 8.333333e-01 0.000000e+00
3.157895e+00 8.333333e-01 0.000000e+00
3.289474e+00 8.333333e-01 0.000000e+00
3.421053e+00 8.333333e-01 0.000000e+00
3.552632e+00 8.333333e-01 0.000000e+00
3.684211e+00 8.333333e-01 0.000000e+00
3.815789e+00 8.333333e-01 0.000000e+00
3.947368e+00 8.333333e-01 0.000000e+00
4.078947e+00 8.333333e-01 0.000000e+00
4.210526e+00 8.333333e-01 0.000000e+00
4.342105e+00 8.333333e-01 0.000000e+00
4.473684e+00 8.333333e-01 0.000000e+00
4.605263e+00 8.333333e-01 0.000000e+00
4.736842e+00 8.333333e-01 0.000000e+00
4.868421e+00 8.333333e-01 0.000000e+00
5.000000e+00 8.333333e-01 0.000000e+00
0.000000e+00 1.000000e+00 0.000000e+00
1.315789e-01 1.000000e+00 0.000000e+00
2.631579e-01 1.000000e+00 0.000000e+00
3.947368e-01 1.000000e+00 0.000000e+00
5.263158e-01 1.000000e+00 0.000000e+00
6.578947e-01 1.000000e+00 0.000000e+00
7.894737e-01 1.000000e+00 0.000000e+00
9.210526e-01 1.000000e+00 0.000000e+00
1.052632e+00 1.000000e+00 0.000000e+00
1.184211e+00 1.000000e+00 0.000000e+00
1.315789e+00 1.000000e+00 0.000000e+00
1.447368e+00 1.000000e+00 0.000000e+00
1.578947e+00 1.000000e+00 0.000000e+00
1.710526e+00 1.000000e+00 0.000000e+00
1.842105e+00 1.000000e+00 0.000000e+00
1.973684e+00 1.000000e+00 0.000000e+00
2.105263e+00 1.000000e+00 0.000000e+00
2.236842e+00 1.000000e+00 0.000000e+00
2.368421e+00 1.000000e+00 0.000000e+00
2.500000e+00 1.000000e+00 0.000000e+00
2.631579e+00 1.000000e+00 0.000000e+00
2.763158e+00 1.000000e+00 0.000000e+00
2.894737e+00 1.000000e+00 0.000000e+00
3.026316e+00 1.000000e+00 0.000000e+00
3.157895e+00 1.000000e+00 0.000000e+00
3.289474e+00 1.000000e+00 0.000000e+00
3.421053e+00 1.000000e+00 0.000000e+00
3.552632e+00 1.000000e+00 0.000000e+00
3.684211e+00 1.000000e+00 0.000000e+00
3.815789e+00 1.000000e+00 0.000000e+00
3.947368e+00 1.000000e+00 0.000000e+00
4.078947e+00 1.000000e+00 0.000000e+00
4.210526e+00 1.000000e+00 0.000000e+00
4.342105e+00 1.000000e+00 0.000000e+00
4.473684e+00 1.000000e+00 0.000000e+00
4.605263e+00 1.000000e+00 0.000000e+00
4.736842e+00 1.000000e+00 0.000000e+00
4.868421e+00 1.000000e+00 0.000000e+00
5.000000e+00 1.000000e+00 0.000000e+00
</DataArray>
</Points>
<PointData>
<DataArray Name="Velocity" type="Float64" format="ascii" NumberOfComponents="3">
0.000000e+00 0.000000e+00 0
0.000000e+00 0.000000e+00 0
0.000000e+00 0.000000e+00 0
-2.810771e-18 0.000000e+00 0
0.000000e+00 0.000000e+00 0
0.000000e+00 0.000000e+00 0
5.796331e-20 0.000000e+00 0
0.000000e+00 0.000000e+00 0
0.000000e+00 0.000000e+00 0
0.000000e+00 0.000000e+00 0
0.000000e+00 0.000000e+00 0
0.000000e+00 0.000000e+00 0
9.572775e-19 0.000000e+00 0
0.000000e+00 0.000000e+00 0
0.000000e+00 0.000000e+00 0
0.000000e+00 0.000000e+00 0
0.000000e+00 0.000000e+00 0
0.000000e+00 0.000000e+00 0
0.000000e+00 0.000000e+00 0
0.000000e+00 0.000000e+00 0
0.000000e+00 0.000000e+00 0
0.000000e+00 0.000000e+00 0
0.000000e+00 0.000000e+00 0
0.000000e+00 0.000000e+00 0
0.000000e+00 0.000000e+00 0
0.000000e+00 0.000000e+00 0
0.000000e+00 0.000000e+00 0
0.000000e+00 0.000000e+00 0
0.000000e+00 0.000000e+00 0
0.000000e+00 0.000000e+00 0
0.000000e+00 0.000000e+00 0
0.000000e+00 0.000000e+00 0
0.000000e+00 0.000000e+00 0
0.000000e+00 0.000000e+00 0
0.000000e+00 0.000000e+00 0
0.000000e+00 0.000000e+00 0
0.000000e+00 0.000000e+00 0
0.000000e+00 0.000000e+00 0
0.000000e+00 0.000000e+00 0
0.000000e+00 0.000000e+00 0
-2.116924e-01 -2.775691e-01 0
-1.797960e-01 -1.919146e-01 0
-1.629251e-01 -1.129106e-01 0
-1.493440e-01 -3.759576e-02 0
0.000000e+00 0.000000e+00 0
1.517702e-03 8.565332e-04 0
1.124829e-02 -6.965331e-03 0
2.482701e-02 -1.194967e-02 0
3.855136e-02 -1.273006e-02 0
5.049101e-02 -1.101571e-02 0
5.994450e-02 -8.394935e-03 0
6.691196e-02 -5.789735e-03 0
7.171872e-02 -3.616593e-03 0
7.479894e-02 -1.998719e-03 0
7.659599e-02 -9.045409e-04 0
7.750712e-02 -2.334851e-04 0
7.784741e-02 1.350767e-04 0
7.784914e-02 3.097699e-04 0
7.767523e-02 3.664809e-04 0
7.742946e-02 3.555785e-04 0
7.717234e-02 3.111442e-04 0
7.693631e-02 2.536643e-04 0
7.673744e-02 1.955447e-04 0
7.658050e-02 1.436422e-04 0
7.646295e-02 1.006293e-04 0
7.637914e-02 6.685696e-05 0
7.632251e-02 4.165674e-05 0
7.628665e-02 2.380110e-05 0
7.626573e-02 1.175862e-05 0
7.625501e-02 4.039895e-06 0
7.625091e-02 -5.469314e-07 0
7.625078e-02 -2.847420e-06 0
7.625272e-02 -3.597430e-06 0
7.625543e-02 -3.457159e-06 0
7.625816e-02 -2.871954e-06 0
7.626044e-02 -2.173578e-06 0
7.626213e-02 -1.676612e-06 0
7.626213e-02 -1.519435e-06 0
0.000000e+00 0.000000e+00 0
-1.698419e-01 -2.640152e-01 0
-1.719571e-01 -2.342779e-01 0
-1.718271e-01 -1.774274e-01 0
-1.681921e-01 -6.791554e-02 0
0.000000e+00 0.000000e+00 0
2.811616e-02 -1.424273e-02 0
5.110965e-02 -2.955640e-02 0
6.987412e-02 -3.458992e-02 0
8.456932e-02 -3.248952e-02 0
9.592070e-02 -2.709525e-02 0
1.045489e-01 -2.081164e-02 0
1.109520e-01 -1.491547e-02 0
1.155433e-01 -9.982852e-03 0
1.186919e-01 -6.177732e-03 0
1.207382e-01 -3.434869e-03 0
1.219737e-01 -1.584153e-03 0
1.226307e-01 -4.299616e-04 0
1.229008e-01 2.176968e-04 0
1.229386e-01 5.304249e-04 0
1.228507e-01 6.379993e-04 0
1.227056e-01 6.256790e-04 0
1.225475e-01 5.507094e-04 0
1.224021e-01 4.506700e-04 0
1.222804e-01 3.481679e-04 0
1.221852e-01 2.553994e-04 0
1.221153e-01 1.779574e-04 0
1.220668e-01 1.172390e-04 0
1.220354e-01 7.210708e-05 0
1.220165e-01 4.019795e-05 0
1.220064e-01 1.883131e-05 0
1.220022e-01 5.439164e-06 0
1.220014e-01 -2.208247e-06 0
1.220025e-01 -5.854418e-06 0
1.220045e-01 -6.863121e-06 0
1.220067e-01 -6.317779e-06 0
1.220086e-01 -5.019827e-06 0
1.220101e-01 -3.632853e-06 0
1.220101e-01 -2.998489e-06 0
8.019160e-02 -2.323978e-19 0
1.387779e-16 -5.071803e-19 0
1.387779e-16 -1.515585e-18 0
1.499589e-16 -3.817493e-18 0
1.665335e-16 -8.481163e-18 0
9.447507e-02 -2.601138e-02 0
1.155842e-01 -5.678241e-02 0
1.254951e-01 -5.987808e-02 0
1.308832e-01 -5.430547e-02 0
1.336312e-01 -4.570797e-02 0
1.349736e-01 -3.633740e-02 0
1.356314e-01 -2.744062e-02 0
1.359855e-01 -1.970457e-02 0
1.362153e-01 -1.341605e-02 0
1.364037e-01 -8.585683e-03 0
1.365842e-01 -5.062471e-03 0
1.367543e-01 -2.625286e-03 0
1.368983e-01 -1.038691e-03 0
1.370074e-01 -8.311818e-05 0
1.370793e-01 4.304275e-04 0
1.371243e-01 6.524428e-04 0
1.371524e-01 6.947334e-04 0
1.371725e-01 6.374424e-04 0
1.371890e-01 5.343130e-04 0
1.372031e-01 4.187028e-04 0
1.372155e-01 3.097056e-04 0
1.372263e-01 2.167394e-04 0
1.372357e-01 1.429101e-04 0
1.372434e-01 8.761263e-05 0
1.372495e-01 4.841133e-05 0
1.372541e-01 2.221604e-05 0
1.372574e-01 5.921517e-06 0
1.372596e-01 -3.237301e-06 0
1.372609e-01 -7.547121e-06 0
1.372617e-01 -8.755827e-06 0
1.372622e-01 -8.104532e-06 0
1.372625e-01 -6.474093e-06 0
1.372627e-01 -4.605208e-06 0
1.372627e-01 -3.704570e-06 0
2.104376e-01 -5.233133e-04 0
2.104376e-01 -1.142069e-03 0
2.108708e-01 -3.412794e-03 0
2.120596e-01 -8.596230e-03 0
2.147460e-01 -1.909788e-02 0
2.162402e-01 -3.457392e-02 0
2.030234e-01 -4.644710e-02 0
1.870825e-01 -4.892657e-02 0
1.720978e-01 -4.486781e-02 0
1.589809e-01 -3.767511e-02 0
1.480618e-01 -2.964284e-02 0
1.394066e-01 -2.208686e-02 0
1.328709e-01 -1.564427e-02 0
1.281762e-01 -1.051606e-02 0
1.249901e-01 -6.650332e-03 0
1.229710e-01 -3.874778e-03 0
1.217979e-01 -1.978338e-03 0
1.212008e-01 -7.530943e-04 0
1.209729e-01 -1.281108e-05 0
1.209687e-01 3.844874e-04 0
1.210825e-01 5.460805e-04 0
1.212460e-01 5.636784e-04 0
1.214187e-01 5.044012e-04 0
1.215770e-01 4.124778e-04 0
1.217100e-01 3.147450e-04 0
1.218146e-01 2.258796e-04 0
1.218927e-01 1.523907e-04 0
1.219479e-01 9.574332e-05 0
1.219848e-01 5.465856e-05 0
1.220077e-01 2.662796e-05 0
1.220207e-01 8.822127e-06 0
1.220269e-01 -1.451857e-06 0
1.220289e-01 -6.616540e-06 0
1.220286e-01 -8.555912e-06 0
1.220271e-01 -8.524033e-06 0
1.220252e-01 -7.368314e-06 0
1.220235e-01 -5.670304e-06 0
1.220222e-01 -3.960231e-06 0
1.220222e-01 -3.173997e-06 0
2.074974e-01 -4.174679e-04 0
2.074974e-01 -7.748120e-04 0
2.067711e-01 -2.085576e-03 0
2.047751e-01 -4.893976e-03 0
2.000112e-01 -9.697240e-03 0
1.897139e-01 -1.562191e-02 0
1.726945e-01 -1.987305e-02 0
1.530368e-01 -2.068255e-02 0
1.340814e-01 -1.869583e-02 0
1.176182e-01 -1.527532e-02 0
1.043302e-01 -1.154968e-02 0
9.421473e-02 -8.189747e-03 0
8.689787e-02 -5.475699e-03 0
8.186413e-02 -3.439448e-03 0
7.859276e-02 -1.993547e-03 0
7.661444e-02 -1.014635e-03 0
7.553578e-02 -3.826404e-04 0
7.505215e-02 3.939130e-06 0
7.494032e-02 2.115815e-04 0
7.504269e-02 2.933071e-04 0
7.524447e-02 3.008568e-04 0
7.547355e-02 2.683683e-04 0
7.568940e-02 2.185897e-04 0
7.587205e-02 1.657140e-04 0
7.601519e-02 1.177147e-04 0
7.612052e-02 7.820746e-05 0
7.619354e-02 4.800159e-05 0
7.624092e-02 2.635708e-05 0
7.626919e-02 1.186092e-05 0
7.628408e-02 2.932060e-06 0
7.629023e-02 -2.041261e-06 0
7.629109e-02 -4.483352e-06 0
7.628911e-02 -5.328286e-06 0
7.628587e-02 -5.177494e-06 0
7.628236e-02 -4.486762e-06 0
7.627915e-02 -3.556903e-06 0
7.627654e-02 -2.606247e-06 0
7.627466e-02 -1.902601e-06 0
7.627466e-02 -1.654186e-06 0
0.000000e+00 0.000000e+00 0
0.000000e+00 0.000000e+00 0
0.000000e+00 0.000000e+00 0
-4.637422e-18 0.000000e+00 0
0.000000e+00 0.000000e+00 0
0.000000e+00 0.000000e+00 0
2.160328e-18 0.000000e+00 0
0.000000e+00 0.000000e+00 0
0.000000e+00 0.000000e+00 0
0.000000e+00 0.000000e+00 0
0.000000e+00 0.000000e+00 0
0.000000e+00 0.000000e+00 0
-1.097615e-18 0.000000e+00 0
0.000000e+00 0.000000e+00 0
0.000000e+00 0.000000e+00 0
0.000000e+00 0.000000e+00 0
0.000000e+00 0.000000e+00 0
0.000000e+00 0.000000e+00 0
0.000000e+00 0.000000e+00 0
0.000000e+00 0.000000e+00 0
0.000000e+00 0.000000e+00 0
0.000000e+00 0.000000e+00 0
0.000000e+00 0.000000e+00 0
0.000000e+00 0.000000e+00 0
0.000000e+00 0.000000e+00 0
0.000000e+00 0.000000e+00 0
0.000000e+00 0.000000e+00 0
0.000000e+00 0.000000e+00 0
0.000000e+00 0.000000e+00 0
0.000000e+00 0.000000e+00 0
0.000000e+00 0.000000e+00 0
0.000000e+00 0.000000e+00 0
0.000000e+00 0.000000e+00 0
0.000000e+00 0.000000e+00 0
0.000000e+00 0.000000e+00 0
0.000000e+00 0.000000e+00 0
0.000000e+00 0.000000e+00 0
0.000000e+00 0.000000e+00 0
0.000000e+00 0.000000e+00 0
</DataArray>
<DataArray Name="Pressure" type="Float64" format="ascii">
0.000000e+00 0.000000e+00 0.000000e+00 0.000000e+00 1.806792e-02 3.613885e-02 3.681778e-02 3.843595e-02 4.011016e-02 4.111967e-02 4.121812e-02 4.052422e-02 3.928885e-02 3.773736e-02 3.603172e-02 3.428277e-02 3.255533e-02 3.087561e-02 2.924951e-02 2.767413e-02 2.614086e-02 2.463847e-02 2.315761e-02 2.169217e-02 2.023708e-02 1.878803e-02 1.734226e-02 1.589821e-02 1.445481e-02 1.301128e-02 1.156729e-02 1.012276e-02 8.677724e-03 7.232229e-03 5.786343e-03 4.340164e-03 2.893773e-03 1.447219e-03 1.809761e-04 
0.000000e+00 0.000000e+00 0.000000e+00 0.000000e+00 1.742439e-02 3.484877e-02 3.584793e-02 3.793822e-02 3.979179e-02 4.082162e-02 4.090665e-02 4.022207e-02 3.902010e-02 3.751371e-02 3.585846e-02 3.415981e-02 3.247558e-02 3.082778e-02 2.922320e-02 2.766226e-02 2.613787e-02 2.464007e-02 2.316157e-02 2.169709e-02 2.024185e-02 1.879211e-02 1.734557e-02 1.590078e-02 1.445666e-02 1.301253e-02 1.156810e-02 1.012327e-02 8.678005e-03 7.232340e-03 5.786355e-03 4.340121e-03 2.893707e-03 1.447170e-03 0.000000e+00 
4.754887e-02 4.498157e-02 3.979799e-02 3.443300e-02 3.417693e-02 3.389379e-02 3.350218e-02 3.739227e-02 3.962545e-02 4.049297e-02 4.037703e-02 3.959544e-02 3.839477e-02 3.695355e-02 3.540004e-02 3.381394e-02 3.223155e-02 3.066648e-02 2.912547e-02 2.760933e-02 2.611319e-02 2.463233e-02 2.316387e-02 2.170454e-02 2.025094e-02 1.880098e-02 1.735343e-02 1.590724e-02 1.446159e-02 1.301610e-02 1.157058e-02 1.012491e-02 8.678997e-03 7.232859e-03 5.786554e-03 4.340117e-03 2.893584e-03 1.447008e-03 0.000000e+00 
9.754887e-02 8.996313e-02 7.959597e-02 6.886599e-02 5.434773e-02 4.055373e-02 3.717448e-02 3.943291e-02 4.052916e-02 4.055835e-02 3.991803e-02 3.887839e-02 3.760770e-02 3.621674e-02 3.477828e-02 3.332650e-02 3.187038e-02 3.041473e-02 2.896324e-02 2.751279e-02 2.606069e-02 2.460891e-02 2.315867e-02 2.170933e-02 2.026032e-02 1.881179e-02 1.736381e-02 1.591617e-02 1.446872e-02 1.302148e-02 1.157444e-02 1.012752e-02 8.680639e-03 7.233795e-03 5.786992e-03 4.340215e-03 2.893462e-03 1.446737e-03 0.000000e+00 
1.000000e-01 9.001288e-02 7.991606e-02 6.972228e-02 5.923035e-02 5.017273e-02 4.513094e-02 4.312611e-02 4.187483e-02 4.066578e-02 3.940589e-02 3.811185e-02 3.680084e-02 3.548705e-02 3.417590e-02 3.285895e-02 3.152602e-02 3.017509e-02 2.880529e-02 2.741507e-02 2.600689e-02 2.458524e-02 2.315371e-02 2.171466e-02 2.027051e-02 1.882344e-02 1.737487e-02 1.592560e-02 1.447622e-02 1.302711e-02 1.157843e-02 1.013015e-02 8.682250e-03 7.234693e-03 5.787402e-03 4.340301e-03 2.893333e-03 1.446449e-03 0.000000e+00 
1.000000e-01 9.008237e-02 8.037204e-02 7.090612e-02 6.194532e-02 5.424351e-02 4.859761e-02 4.484422e-02 4.223765e-02 4.027928e-02 3.870339e-02 3.734787e-02 3.610695e-02 3.491703e-02 3.373698e-02 3.253686e-02 3.130048e-02 3.002436e-02 2.870946e-02 2.735945e-02 2.598012e-02 2.457731e-02 2.315663e-02 2.172295e-02 2.028073e-02 1.883350e-02 1.738363e-02 1.593265e-02 1.448155e-02 1.303091e-02 1.158096e-02 1.013171e-02 8.683138e-03 7.235133e-03 5.787554e-03 4.340275e-03 2.893198e-03 1.446259e-03 0.000000e+00 
9.874117e-02 9.010210e-02 8.050792e-02 7.123368e-02 6.254940e-02 5.501715e-02 4.915603e-02 4.495798e-02 4.200648e-02 3.988132e-02 3.827218e-02 3.695786e-02 3.578946e-02 3.467640e-02 3.356383e-02 3.241779e-02 3.122242e-02 2.997501e-02 2.868079e-02 2.734608e-02 2.597632e-02 2.457897e-02 2.316093e-02 2.172816e-02 2.028583e-02 1.883793e-02 1.738718e-02 1.593531e-02 1.448343e-02 1.303215e-02 1.158170e-02 1.013213e-02 8.683345e-03 7.235204e-03 5.787544e-03 4.340223e-03 2.893128e-03 1.446200e-03 1.806939e-04 
</DataArray>
<DataArray Name="Stream" type="Float64" format="ascii">
0.000000e+00 0.000000e+00 0.000000e+00 0.000000e+00 0.000000e+00 0.000000e+00 0.000000e+00 0.000000e+00 0.000000e+00 0.000000e+00 0.000000e+00 0.000000e+00 0.000000e+00 0.000000e+00 0.000000e+00 0.000000e+00 0.000000e+00 0.000000e+00 0.000000e+00 0.000000e+00 0.000000e+00 0.000000e+00 0.000000e+00 0.000000e+00 0.000000e+00 0.000000e+00 0.000000e+00 0.000000e+00 0.000000e+00 0.000000e+00 0.000000e+00 0.000000e+00 0.000000e+00 0.000000e+00 0.000000e+00 0.000000e+00 0.000000e+00 0.000000e+00 0.000000e+00 
0.000000e+00 0.000000e+00 0.000000e+00 0.000000e+00 0.000000e+00 0.000000e+00 -6.482492e-04 -2.223870e-04 1.180842e-03 2.917957e-03 4.532312e-03 5.818929e-03 6.740296e-03 7.341091e-03 7.692750e-03 7.867879e-03 7.930245e-03 7.928927e-03 7.895176e-03 7.847699e-03 7.798554e-03 7.754138e-03 7.716910e-03 7.687466e-03 7.665429e-03 7.649724e-03 7.639041e-03 7.632171e-03 7.628091e-03 7.625939e-03 7.625034e-03 7.624897e-03 7.625192e-03 7.625661e-03 7.626150e-03 7.626578e-03 7.626912e-03 7.627154e-03 7.627154e-03 
0.000000e+00 0.000000e+00 0.000000e+00 0.000000e+00 0.000000e+00 0.000000e+00 5.059007e-04 3.749430e-03 8.275670e-03 1.285045e-02 1.683034e-02 1.998150e-02 2.230399e-02 2.390624e-02 2.493298e-02 2.553200e-02 2.583571e-02 2.594914e-02 2.594971e-02 2.589174e-02 2.580982e-02 2.572411e-02 2.564544e-02 2.557915e-02 2.552683e-02 2.548765e-02 2.545971e-02 2.544084e-02 2.542888e-02 2.542191e-02 2.541834e-02 2.541697e-02 2.541693e-02 2.541757e-02 2.541848e-02 2.541939e-02 2.542015e-02 2.542071e-02 2.542071e-02 
0.000000e+00 1.187074e-17 1.197429e-17 1.226872e-17 1.297886e-17 1.398512e-17 8.723805e-03 1.681416e-02 2.447221e-02 3.110773e-02 3.650588e-02 4.066857e-02 4.372430e-02 4.585551e-02 4.725672e-02 4.811394e-02 4.858816e-02 4.880583e-02 4.886211e-02 4.882724e-02 4.874878e-02 4.865601e-02 4.856609e-02 4.848817e-02 4.842556e-02 4.837814e-02 4.834413e-02 4.832112e-02 4.830656e-02 4.829812e-02 4.829385e-02 4.829229e-02 4.829232e-02 4.829316e-02 4.829432e-02 4.829548e-02 4.829646e-02 4.829718e-02 4.829718e-02 
0.000000e+00 2.673053e-02 2.696371e-02 2.762669e-02 2.922580e-02 3.149169e-02 3.903397e-02 4.558114e-02 5.190342e-02 5.739420e-02 6.182154e-02 6.519195e-02 6.763249e-02 6.931134e-02 7.040087e-02 7.106007e-02 7.142047e-02 7.158191e-02 7.161886e-02 7.158485e-02 7.151792e-02 7.144159e-02 7.136961e-02 7.130882e-02 7.126121e-02 7.122614e-02 7.120182e-02 7.118606e-02 7.117668e-02 7.117173e-02 7.116970e-02 7.116944e-02 7.117012e-02 7.117121e-02 7.117238e-02 7.117346e-02 7.117433e-02 7.117495e-02 7.117495e-02 
0.000000e+00 7.014586e-02 7.029027e-02 7.068654e-02 7.158201e-02 7.208007e-02 7.639829e-02 7.917501e-02 8.183813e-02 8.410138e-02 8.585982e-02 8.713745e-02 8.801462e-02 8.858091e-02 8.892008e-02 8.910429e-02 8.918746e-02 8.920611e-02 8.918642e-02 8.915013e-02 8.910960e-02 8.907134e-02 8.903898e-02 8.901384e-02 8.899555e-02 8.898301e-02 8.897502e-02 8.897042e-02 8.896816e-02 8.896736e-02 8.896742e-02 8.896793e-02 8.896864e-02 8.896936e-02 8.897001e-02 8.897055e-02 8.897095e-02 8.897123e-02 8.897123e-02 
0.000000e+00 9.589634e-02 9.588740e-02 9.588505e-02 9.589620e-02 9.472966e-02 9.659879e-02 9.659340e-02 9.659722e-02 9.660029e-02 9.659828e-02 9.659686e-02 9.659844e-02 9.659938e-02 9.659846e-02 9.659822e-02 9.659906e-02 9.659930e-02 9.659897e-02 9.659908e-02 9.659941e-02 9.659944e-02 9.659941e-02 9.659950e-02 9.659960e-02 9.659965e-02 9.659966e-02 9.659970e-02 9.659975e-02 9.659976e-02 9.659978e-02 9.659981e-02 9.659982e-02 9.659983e-02 9.659984e-02 9.659984e-02 9.659984e-02 9.659984e-02 9.659984e-02 
</DataArray>
<DataArray Name="Vorticity" type="Float64" format="ascii">
0.000000e+00 -2.929010e+00 -2.129521e+00 -1.775474e+00 -1.651903e+00 0.000000e+00 -4.667395e-02 -1.601186e-02 8.502060e-02 2.100929e-01 3.263264e-01 4.189629e-01 4.853013e-01 5.285586e-01 5.538780e-01 5.664873e-01 5.709776e-01 5.708827e-01 5.684526e-01 5.650343e-01 5.614959e-01 5.582979e-01 5.556175e-01 5.534975e-01 5.519109e-01 5.507801e-01 5.500110e-01 5.495163e-01 5.492226e-01 5.490676e-01 5.490024e-01 5.489926e-01 5.490138e-01 5.490476e-01 5.490828e-01 5.491136e-01 5.491376e-01 5.491551e-01 5.491551e-01 
4.968715e+00 -3.609627e-01 -5.803157e-01 -8.282037e-01 -6.364353e-01 -7.524568e-02 1.271127e-01 2.076573e-01 2.319995e-01 2.452893e-01 2.607417e-01 2.793592e-01 2.990550e-01 3.176215e-01 3.335621e-01 3.461802e-01 3.553922e-01 3.613997e-01 3.649682e-01 3.669753e-01 3.679165e-01 3.681867e-01 3.680754e-01 3.677780e-01 3.674177e-01 3.670664e-01 3.667609e-01 3.665146e-01 3.663278e-01 3.661937e-01 3.661026e-01 3.660432e-01 3.660056e-01 3.659863e-01 3.659790e-01 3.659788e-01 3.659825e-01 3.659881e-01 3.659904e-01 
4.175373e+00 -4.883694e-02 -1.675674e-01 -5.016585e-01 -1.176070e+00 5.780202e-02 4.129826e-01 4.014252e-01 3.300910e-01 2.653367e-01 2.179531e-01 1.870086e-01 1.690901e-01 1.606010e-01 1.583959e-01 1.599606e-01 1.634418e-01 1.676194e-01 1.715322e-01 1.746895e-01 1.771647e-01 1.790484e-01 1.804367e-01 1.814247e-01 1.821013e-01 1.825448e-01 1.828194e-01 1.829766e-01 1.830557e-01 1.830857e-01 1.830869e-01 1.830730e-01 1.830519e-01 1.830278e-01 1.830064e-01 1.829899e-01 1.829792e-01 1.829754e-01 1.829850e-01 
9.622992e-01 1.924598e+00 1.941387e+00 1.989122e+00 2.104257e+00 1.529074e+00 8.676680e-01 5.399886e-01 3.450364e-01 2.177804e-01 1.318823e-01 7.403834e-02 3.604434e-02 1.216939e-02 -1.820051e-03 -9.087130e-03 -1.197233e-02 -1.217067e-02 -1.085872e-02 -8.954119e-03 -6.937860e-03 -5.085243e-03 -3.527948e-03 -2.302943e-03 -1.392335e-03 -7.517275e-04 -3.270298e-04 -6.491073e-05 8.129022e-05 1.493637e-04 1.680244e-04 1.579493e-04 1.338283e-04 1.064144e-04 8.028514e-05 5.808192e-05 4.149680e-05 3.304375e-05 4.673345e-05 
6.006525e-01 6.100576e-01 6.141730e-01 6.092717e-01 5.786420e-01 4.567699e-01 3.051328e-01 1.602723e-01 4.192873e-02 -4.598607e-02 -1.069445e-01 -1.466958e-01 -1.709734e-01 -1.846183e-01 -1.913439e-01 -1.938113e-01 -1.938351e-01 -1.926083e-01 -1.909232e-01 -1.888508e-01 -1.869179e-01 -1.853483e-01 -1.841899e-01 -1.834043e-01 -1.829194e-01 -1.826573e-01 -1.825477e-01 -1.825339e-01 -1.825740e-01 -1.826391e-01 -1.827112e-01 -1.827776e-01 -1.828301e-01 -1.828707e-01 -1.829015e-01 -1.829239e-01 -1.829389e-01 -1.829455e-01 -1.829336e-01 
-6.359344e-01 -6.305027e-01 -6.237680e-01 -6.148120e-01 -6.046994e-01 -6.005556e-01 -5.985208e-01 -5.893888e-01 -5.694487e-01 -5.403634e-01 -5.065580e-01 -4.728060e-01 -4.426854e-01 -4.180445e-01 -3.992430e-01 -3.857168e-01 -3.764938e-01 -3.704924e-01 -3.665603e-01 -3.644501e-01 -3.635200e-01 -3.633130e-01 -3.635118e-01 -3.639038e-01 -3.643542e-01 -3.647841e-01 -3.651536e-01 -3.654486e-01 -3.656699e-01 -3.658261e-01 -3.659267e-01 -3.659869e-01 -3.660222e-01 -3.660403e-01 -3.660475e-01 -3.660482e-01 -3.660454e-01 -3.660401e-01 -3.660364e-01 
-1.854035e+00 -1.854035e+00 -1.842993e+00 -1.814293e+00 -1.750621e+00 -1.630770e+00 -1.454436e+00 -1.254124e+00 -1.062654e+00 -8.999213e-01 -7.731685e-01 -6.810779e-01 -6.180355e-01 -5.773297e-01 -5.528433e-01 -5.395629e-01 -5.336355e-01 -5.323095e-01 -5.337037e-01 -5.363243e-01 -5.392662e-01 -5.420231e-01 -5.443508e-01 -5.461672e-01 -5.474921e-01 -5.483978e-01 -5.489742e-01 -5.493082e-01 -5.494743e-01 -5.495332e-01 -5.495302e-01 -5.494949e-01 -5.494455e-01 -5.493940e-01 -5.493475e-01 -5.493091e-01 -5.492801e-01 -5.492596e-01 -5.492596e-01 
</DataArray>
</PointData>
</Piece>
</StructuredGrid>
</VTKFile>
