<?xml version="1.0"?>
<VTKFile type="StructuredGrid">
<StructuredGrid WholeExtent="0 38 0 6 0 0 ">
<Piece Extent="0 38 0 6 0 0 ">
<Points>
<DataArray type="Float64" format="ascii" NumberOfComponents="3">
0.000000e+00 0.000000e+00 0.000000e+00
1.315789e-01 0.000000e+00 0.000000e+00
2.631579e-01 0.000000e+00 0.000000e+00
3.947368e-01 0.000000e+00 0.000000e+00
5.263158e-01 0.000000e+00 0.000000e+00
6.578947e-01 0.000000e+00 0.000000e+00
7.894737e-01 0.000000e+00 0.000000e+00
9.210526e-01 0.000000e+00 0.000000e+00
1.052632e+00 0.000000e+00 0.000000e+00
1.184211e+00 0.000000e+00 0.000000e+00
1.315789e+00 0.000000e+00 0.000000e+00
1.447368e+00 0.000000e+00 0.000000e+00
1.578947e+00 0.000000e+00 0.000000e+00
1.710526e+00 0.000000e+00 0.000000e+00
1.842105e+00 0.000000e+00 0.000000e+00
1.973684e+00 0.000000e+00 0.000000e+00
2.105263e+00 0.000000e+00 0.000000e+00
2.236842e+00 0.000000e+00 0.000000e+00
2.368421e+00 0.000000e+00 0.000000e+00
2.500000e+00 0.000000e+00 0.000000e+00
2.631579e+00 0.000000e+00 0.000000e+00
2.763158e+00 0.000000e+00 0.000000e+00
2.894737e+00 0.000000e+00 0.000000e+00
3.026316e+00 0.000000e+00 0.000000e+00
3.157895e+00 0.000000e+00 0.000000e+00
3.289474e+00 0.000000e+00 0.000000e+00
3.421053e+00 0.000000e+00 0.000000e+00
3.552632e+00 0.000000e+00 0.000000e+00
3.684211e+00 0.000000e+00 0.000000e+00
3.815789e+00 0.000000e+00 0.000000e+00
3.947368e+00 0.000000e+00 0.000000e+00
4.078947e+00 0.000000e+00 0.000000e+00
4.210526e+00 0.000000e+00 0.000000e+00
4.342105e+00 0.000000e+00 0.000000e+00
4.473684e+00 0.000000e+00 0.000000e+00
4.605263e+00 0.000000e+00 0.000000e+00
4.736842e+00 0.000000e+00 0.000000e+00
4.868421e+00 0.000000e+00 0.000000e+00
5.000000e+00 0.000000e+00 0.000000e+00
0.000000e+00 1.666667e-01 0.000000e+00
1.315789e-01 1.666667e-01 0.000000e+00
2.631579e-01 1.666667e-01 0.000000e+00
3.947368e-01 1.666667e-01 0.000000e+00
5.263158e-01 1.666667e-01 0.000000e+00
6.578947e-01 1.666667e-01 0.000000e+00
7.894737e-01 1.666667e-01 0.000000e+00
9.210526e-01 1.666667e-01 0.000000e+00
1.052632e+00 1.666667e-01 0.000000e+00
1.184211e+00 1.666667e-01 0.000000e+00
1.315789e+00 1.666667e-01 0.000000e+00
1.447368e+00 1.666667e-01 0.000000e+00
1.578947e+00 1.666667e-01 0.000000e+00
1.710526e+00 1.666667e-01 0.000000e+00
1.842105e+00 1.666667e-01 0.000000e+00
1.973684e+00 1.666667e-01 0.000000e+00
2.105263e+00 1.666667e-01 0.000000e+00
2.236842e+00 1.666667e-01 0.000000e+00
2.368421e+00 1.666667e-01 0.000000e+00
2.500000e+00 1.666667e-01 0.000000e+00
2.631579e+00 1.666667e-01 0.000000e+00
2.763158e+00 1.666667e-01 0.000000e+00
2.894737e+00 1.666667e-01 0.000000e+00
3.026316e+00 1.666667e-01 0.000000e+00
3.157895e+00 1.666667e-01 0.000000e+00
3.289474e+00 1.666667e-01 0.000000e+00
3.421053e+00 1.666667e-01 0.000000e+00
3.552632e+00 1.666667e-01 0.000000e+00
3.684211e+00 1.666667e-01 0.000000e+00
3.815789e+00 1.666667e-01 0.000000e+00
3.947368e+00 1.666667e-01 0.000000e+00
4.078947e+00 1.666667e-01 0.000000e+00
4.210526e+00 1.666667e-01 0.000000e+00
4.342105e+00 1.666667e-01 0.000000e+00
4.473684e+00 1.666667e-01 0.000000e+00
4.605263e+00 1.666667e-01 0.000000e+00
4.736842e+00 1.666667e-01 0.000000e+00
4.868421e+00 1.666667e-01 0.000000e+00
5.000000e+00 1.666667e-01 0.000000e+00
0.000000e+00 3.333333e-01 0.000000e+00
1.315789e-01 3.333333e-01 0.000000e+00
2.631579e-01 3.333333e-01 0.000000e+00
3.947368e-01 3.333333e-01 0.000000e+00
5.263158e-01 3.333333e-01 0.000000e+00
6.578947e-01 3.333333e-01 0.000000e+00
7.894737e-01 3.333333e-01 0.000000e+00
9.210526e-01 3.333333e-01 0.000000e+00
1.052632e+00 3.333333e-01 0.000000e+00
1.184211e+00 3.333333e-01 0.000000e+00
1.315789e+00 3.333333e-01 0.000000e+00
1.447368e+00 3.333333e-01 0.000000e+00
1.578947e+00 3.333333e-01 0.000000e+00
1.710526e+00 3.333333e-01 0.000000e+00
1.842105e+00 3.333333e-01 0.000000e+00
1.973684e+00 3.333333e-01 0.000000e+00
2.105263e+00 3.333333e-01 0.000000e+00
2.236842e+00 3.333333e-01 0.000000e+00
2.368421e+00 3.333333e-01 0.000000e+00
2.500000e+00 3.333333e-01 0.000000e+00
2.631579e+00 3.333333e-01 0.000000e+00
2.763158e+00 3.333333e-01 0.000000e+00
2.894737e+00 3.333333e-01 0.000000e+00
3.026316e+00 3.333333e-01 0.000000e+00
3.157895e+00 3.333333e-01 0.000000e+00
3.289474e+00 3.333333e-01 0.000000e+00
3.421053e+00 3.333333e-01 0.000000e+00
3.552632e+00 3.333333e-01 0.000000e+00
3.684211e+00 3.333333e-01 0.000000e+00
3.815789e+00 3.333333e-01 0.000000e+00
3.947368e+00 3.333333e-01 0.000000e+00
4.078947e+00 3.333333e-01 0.000000e+00
4.210526e+00 3.333333e-01 0.000000e+00
4.342105e+00 3.333333e-01 0.000000e+00
4.473684e+00 3.333333e-01 0.000000e+00
4.605263e+00 3.333333e-01 0.000000e+00
4.736842e+00 3.333333e-01 0.000000e+00
4.868421e+00 3.333333e-01 0.000000e+00
5.000000e+00 3.333333e-01 0.000000e+00
0.000000e+00 5.000000e-01 0.000000e+00
1.315789e-01 5.000000e-01 0.000000e+00
2.631579e-01 5.000000e-01 0.000000e+00
3.947368e-01 5.000000e-01 0.000000e+00
5.263158e-01 5.000000e-01 0.000000e+00
6.578947e-01 5.000000e-01 0.000000e+00
7.894737e-01 5.000000e-01 0.000000e+00
9.210526e-01 5.000000e-01 0.000000e+00
1.052632e+00 5.000000e-01 0.000000e+00
1.184211e+00 5.000000e-01 0.000000e+00
1.315789e+00 5.000000e-01 0.000000e+00
1.447368e+00 5.000000e-01 0.000000e+00
1.578947e+00 5.000000e-01 0.000000e+00
1.710526e+00 5.000000e-01 0.000000e+00
1.842105e+00 5.000000e-01 0.000000e+00
1.973684e+00 5.000000e-01 0.000000e+00
2.105263e+00 5.000000e-01 0.000000e+00
2.236842e+00 5.000000e-01 0.000000e+00
2.368421e+00 5.000000e-01 0.000000e+00
2.500000e+00 5.000000e-01 0.000000e+00
2.631579e+00 5.000000e-01 0.000000e+00
2.763158e+00 5.000000e-01 0.000000e+00
2.894737e+00 5.000000e-01 0.000000e+00
3.026316e+00 5.000000e-01 0.000000e+00
3.157895e+00 5.000000e-01 0.000000e+00
3.289474e+00 5.000000e-01 0.000000e+00
3.421053e+00 5.000000e-01 0.000000e+00
3.552632e+00 5.000000e-01 0.000000e+00
3.684211e+00 5.000000e-01 0.000000e+00
3.815789e+00 5.000000e-01 0.000000e+00
3.947368e+00 5.000000e-01 0.000000e+00
4.078947e+00 5.000000e-01 0.000000e+00
4.210526e+00 5.000000e-01 0.000000e+00
4.342105e+00 5.000000e-01 0.000000e+00
4.473684e+00 5.000000e-01 0.000000e+00
4.605263e+00 5.000000e-01 0.000000e+00
4.736842e+00 5.000000e-01 0.000000e+00
4.868421e+00 5.000000e-01 0.000000e+00
5.000000e+00 5.000000e-01 0.000000e+00
0.000000e+00 6.666667e-01 0.000000e+00
1.315789e-01 6.666667e-01 0.000000e+00
2.631579e-01 6.666667e-01 0.000000e+00
3.947368e-01 6.666667e-01 0.000000e+00
5.263158e-01 6.666667e-01 0.000000e+00
6.578947e-01 6.666667e-01 0.000000e+00
7.894737e-01 6.666667e-01 0.000000e+00
9.210526e-01 6.666667e-01 0.000000e+00
1.052632e+00 6.666667e-01 0.000000e+00
1.184211e+00 6.666667e-01 0.000000e+00
1.315789e+00 6.666667e-01 0.000000e+00
1.447368e+00 6.666667e-01 0.000000e+00
1.578947e+00 6.666667e-01 0.000000e+00
1.710526e+00 6.666667e-01 0.000000e+00
1.842105e+00 6.666667e-01 0.000000e+00
1.973684e+00 6.666667e-01 0.000000e+00
2.105263e+00 6.666667e-01 0.000000e+00
2.236842e+00 6.666667e-01 0.000000e+00
2.368421e+00 6.666667e-01 0.000000e+00
2.500000e+00 6.666667e-01 0.000000e+00
2.631579e+00 6.666667e-01 0.000000e+00
2.763158e+00 6.666667e-01 0.000000e+00
2.894737e+00 6.666667e-01 0.000000e+00
3.026316e+00 6.666667e-01 0.000000e+00
3.157895e+00 6.666667e-01 0.000000e+00
3.289474e+00 6.666667e-01 0.000000e+00
3.421053e+00 6.666667e-01 0.000000e+00
3.552632e+00 6.666667e-01 0.000000e+00
3.684211e+00 6.666667e-01 0.000000e+00
3.815789e+00 6.666667e-01 0.000000e+00
3.947368e+00 6.666667e-01 0.000000e+00
4.078947e+00 6.666667e-01 0.000000e+00
4.210526e+00 6.666667e-01 0.000000e+00
4.342105e+00 6.666667e-01 0.000000e+00
4.473684e+00 6.666667e-01 0.000000e+00
4.605263e+00 6.666667e-01 0.000000e+00
4.736842e+00 6.666667e-01 0.000000e+00
4.868421e+00 6.666667e-01 0.000000e+00
5.000000e+00 6.666667e-01 0.000000e+00
0.000000e+00 8.333333e-01 0.000000e+00
1.315789e-01 8.333333e-01 0.000000e+00
2.631579e-01 8.333333e-01 0.000000e+00
3.947368e-01 8.333333e-01 0.000000e+00
5.263158e-01 8.333333e-01 0.000000e+00
6.578947e-01 8.333333e-01 0.000000e+00
7.894737e-01 8.333333e-01 0.000000e+00
9.210526e-01 8.333333e-01 0.000000e+00
1.052632e+00 8.333333e-01 0.000000e+00
1.184211e+00 8.333333e-01 0.000000e+00
1.315789e+00 8.333333e-01 0.000000e+00
1.447368e+00 8.333333e-01 0.000000e+00
1.578947e+00 8.333333e-01 0.000000e+00
1.710526e+00 8.333333e-01 0.000000e+00
1.842105e+00 8.333333e-01 0.000000e+00
1.973684e+00 8.333333e-01 0.000000e+00
2.105263e+00 8.333333e-01 0.000000e+00
2.236842e+00 8.333333e-01 0.000000e+00
2.368421e+00 8.333333e-01 0.000000e+00
2.500000e+00 8.333333e-01 0.000000e+00
2.631579e+00 8.333333e-01 0.000000e+00
2.763158e+00 8.333333e-01 0.000000e+00
2.894737e+00 8.333333e-01 0.000000e+00
3.026316e+00 8.333333e-01 0.000000e+00
3.157895e+00 8.333333e-01 0.000000e+00
3.289474e+00 8.333333e-01 0.000000e+00
3.421053e+00 8.333333e-01 0.000000e+00
3.552632e+00 8.333333e-01 0.000000e+00
3.684211e+00 8.333333e-01 0.000000e+00
3.815789e+00 8.333333e-01 0.000000e+00
3.947368e+00 8.333333e-01 0.000000e+00
4.078947e+00 8.333333e-01 0.000000e+00
4.210526e+00 8.333333e-01 0.000000e+00
4.342105e+00 8.333333e-01 0.000000e+00
4.473684e+00 8.333333e-01 0.000000e+00
4.605263e+00 8.333333e-01 0.000000e+00
4.736842e+00 8.333333e-01 0.000000e+00
4.868421e+00 8.333333e-01 0.000000e+00
5.000000e+00 8.333333e-01 0.000000e+00
0.000000e+00 1.000000e+00 0.000000e+00
1.315789e-01 1.000000e+00 0.000000e+00
2.631579e-01 1.000000e+00 0.000000e+00
3.947368e-01 1.000000e+00 0.000000e+00
5.263158e-01 1.000000e+00 0.000000e+00
6.578947e-01 1.000000e+00 0.000000e+00
7.894737e-01 1.000000e+00 0.000000e+00
9.210526e-01 1.000000e+00 0.000000e+00
1.052632e+00 1.000000e+00 0.000000e+00
1.184211e+00 1.000000e+00 0.000000e+00
1.315789e+00 1.000000e+00 0.000000e+00
1.447368e+00 1.000000e+00 0.000000e+00
1.578947e+00 1.000000e+00 0.000000e+00
1.710526e+00 1.000000e+00 0.000000e+00
1.842105e+00 1.000000e+00 0.000000e+00
1.973684e+00 1.000000e+00 0.000000e+00
2.105263e+00 1.000000e+00 0.000000e+00
2.236842e+00 1.000000e+00 0.000000e+00
2.368421e+00 1.000000e+00 0.000000e+00
2.500000e+00 1.000000e+00 0.000000e+00
2.631579e+00 1.000000e+00 0.000000e+00
2.763158e+00 1.000000e+00 0.000000e+00
2.894737e+00 1.000000e+00 0.000000e+00
3.026316e+00 1.000000e+00 0.000000e+00
3.157895e+00 1.000000e+00 0.000000e+00
3.289474e+00 1.000000e+00 0.000000e+00
3.421053e+00 1.000000e+00 0.000000e+00
3.552632e+00 1.000000e+00 0.000000e+00
3.684211e+00 1.000000e+00 0.000000e+00
3.815789e+00 1.000000e+00 0.000000e+00
3.947368e+00 1.000000e+00 0.000000e+00
4.078947e+00 1.000000e+00 0.000000e+00
4.210526e+00 1.000000e+00 0.000000e+00
4.342105e+00 1.000000e+00 0.000000e+00
4.473684e+00 1.000000e+00 0.000000e+00
4.605263e+00 1.000000e+00 0.000000e+00
4.736842e+00 1.000000e+00 0.000000e+00
4.868421e+00 1.000000e+00 0.000000e+00
5.000000e+00 1.000000e+00 0.000000e+00
</DataArray>
</Points>
<PointData>
<DataArray Name="Velocity" type="Float64" format="ascii" NumberOfComponents="3">
0.000000e+00 0.000000e+00 0
0.000000e+00 0.000000e+00 0
0.000000e+00 0.000000e+00 0
-2.172552e-17 0.000000e+00 0
0.000000e+00 0.000000e+00 0
0.000000e+00 0.000000e+00 0
-2.203748e-16 0.000000e+00 0
0.000000e+00 0.000000e+00 0
0.000000e+00 0.000000e+00 0
0.000000e+00 0.000000e+00 0
0.000000e+00 0.000000e+00 0
0.000000e+00 0.000000e+00 0
-1.255379e-15 0.000000e+00 0
0.000000e+00 0.000000e+00 0
0.000000e+00 0.000000e+00 0
0.000000e+00 0.000000e+00 0
0.000000e+00 0.000000e+00 0
0.000000e+00 0.000000e+00 0
0.000000e+00 0.000000e+00 0
0.000000e+00 0.000000e+00 0
0.000000e+00 0.000000e+00 0
0.000000e+00 0.000000e+00 0
0.000000e+00 0.000000e+00 0
0.000000e+00 0.000000e+00 0
0.000000e+00 0.000000e+00 0
0.000000e+00 0.000000e+00 0
0.000000e+00 0.000000e+00 0
0.000000e+00 0.000000e+00 0
0.000000e+00 0.000000e+00 0
0.000000e+00 0.000000e+00 0
0.000000e+00 0.000000e+00 0
0.000000e+00 0.000000e+00 0
0.000000e+00 0.000000e+00 0
0.000000e+00 0.000000e+00 0
0.000000e+00 0.000000e+00 0
0.000000e+00 0.000000e+00 0
0.000000e+00 0.000000e+00 0
0.000000e+00 0.000000e+00 0
0.000000e+00 0.000000e+00 0
0.000000e+00 0.000000e+00 0
3.494903e+00 -1.142344e+00 0
4.140444e+00 -8.172045e-01 0
-1.232983e+00 -2.115449e-01 0
4.390894e+01 -4.464386e+00 0
0.000000e+00 0.000000e+00 0
-5.188083e+00 8.547619e+00 0
-8.770746e+00 7.214333e+00 0
-1.141703e+01 6.477225e+00 0
-1.354665e+01 6.150691e+00 0
-1.534351e+01 5.920029e+00 0
-1.670969e+01 5.205751e+00 0
-1.671608e+01 2.750300e+00 0
-1.477225e+01 -1.500760e+00 0
-1.141155e+01 -4.829802e+00 0
-7.163430e+00 -6.328481e+00 0
-2.459067e+00 -7.100058e+00 0
2.379991e+00 -7.329941e+00 0
7.130863e+00 -7.214382e+00 0
1.165535e+01 -6.939171e+00 0
1.587600e+01 -6.591174e+00 0
1.975139e+01 -6.066640e+00 0
2.325497e+01 -5.400402e+00 0
2.639312e+01 -4.785473e+00 0
2.919221e+01 -4.251289e+00 0
3.168685e+01 -3.792005e+00 0
3.391317e+01 -3.396976e+00 0
3.590542e+01 -3.056471e+00 0
3.769445e+01 -2.762102e+00 0
3.930713e+01 -2.506482e+00 0
4.076624e+01 -2.282912e+00 0
4.209052e+01 -2.085099e+00 0
4.329482e+01 -1.906781e+00 0
4.439000e+01 -1.741070e+00 0
4.538269e+01 -1.579162e+00 0
4.627445e+01 -1.407489e+00 0
4.706002e+01 -1.203271e+00 0
4.772747e+01 -8.951487e-01 0
4.772747e+01 -7.008493e-01 0
0.000000e+00 0.000000e+00 0
-7.126647e+01 2.314399e+01 0
-7.056459e+01 5.448332e+00 0
-7.387272e+01 1.541012e+00 0
-5.767741e+01 -7.344809e+00 0
0.000000e+00 0.000000e+00 0
5.015360e+00 1.110961e+01 0
9.337490e+00 7.889996e+00 0
1.351622e+01 6.049478e+00 0
1.776795e+01 4.973542e+00 0
2.230874e+01 4.006524e+00 0
2.730159e+01 1.738586e+00 0
3.259594e+01 -2.454101e+00 0
3.718015e+01 -6.719061e+00 0
4.051351e+01 -9.637834e+00 0
4.347233e+01 -1.133982e+01 0
4.614538e+01 -1.208833e+01 0
4.856917e+01 -1.214724e+01 0
5.077548e+01 -1.174878e+01 0
5.275173e+01 -1.107717e+01 0
5.448023e+01 -1.025499e+01 0
5.595598e+01 -9.346693e+00 0
5.729730e+01 -8.412858e+00 0
5.851245e+01 -7.520510e+00 0
5.959871e+01 -6.705391e+00 0
6.055998e+01 -5.979881e+00 0
6.140595e+01 -5.343519e+00 0
6.214893e+01 -4.789620e+00 0
6.280161e+01 -4.308833e+00 0
6.337582e+01 -3.890929e+00 0
6.388190e+01 -3.525629e+00 0
6.432855e+01 -3.202869e+00 0
6.472286e+01 -2.912670e+00 0
6.507053e+01 -2.644635e+00 0
6.537640e+01 -2.386975e+00 0
6.564563e+01 -2.124617e+00 0
6.588637e+01 -1.840486e+00 0
6.611846e+01 -1.434424e+00 0
6.611846e+01 -1.177970e+00 0
7.389579e+01 -8.767701e-18 0
1.421085e-13 -1.509692e-17 0
1.421085e-13 -4.346398e-17 0
1.323987e-13 -1.239998e-16 0
1.421085e-13 -2.849232e-16 0
7.422057e+01 -1.136519e+00 0
8.042207e+01 -2.753490e+00 0
8.484398e+01 -3.553427e+00 0
8.854497e+01 -4.201357e+00 0
9.195603e+01 -4.986498e+00 0
9.531391e+01 -6.155912e+00 0
9.860243e+01 -7.824703e+00 0
1.009587e+02 -9.762540e+00 0
1.017927e+02 -1.152967e+01 0
1.015635e+02 -1.279991e+01 0
1.006803e+02 -1.346219e+01 0
9.944079e+01 -1.355606e+01 0
9.804487e+01 -1.319473e+01 0
9.661824e+01 -1.251228e+01 0
9.523035e+01 -1.163185e+01 0
9.391605e+01 -1.064990e+01 0
9.269536e+01 -9.634924e+00 0
9.158958e+01 -8.638595e+00 0
9.059946e+01 -7.700603e+00 0
8.971437e+01 -6.844834e+00 0
8.892033e+01 -6.081168e+00 0
8.820384e+01 -5.409635e+00 0
8.755314e+01 -4.824314e+00 0
8.695842e+01 -4.316167e+00 0
8.641163e+01 -3.874841e+00 0
8.590629e+01 -3.489699e+00 0
8.543729e+01 -3.150314e+00 0
8.500085e+01 -2.846623e+00 0
8.459466e+01 -2.568889e+00 0
8.421847e+01 -2.307624e+00 0
8.387530e+01 -2.053461e+00 0
8.357433e+01 -1.802189e+00 0
8.333389e+01 -1.465956e+00 0
8.333389e+01 -1.254518e+00 0
1.457769e+02 -1.974311e-02 0
1.457769e+02 -3.399525e-02 0
1.457926e+02 -9.787219e-02 0
1.458352e+02 -2.792226e-01 0
1.459326e+02 -6.415900e-01 0
1.458569e+02 -1.193401e+00 0
1.452539e+02 -1.820334e+00 0
1.443876e+02 -2.399012e+00 0
1.433842e+02 -2.959122e+00 0
1.422451e+02 -3.600444e+00 0
1.408907e+02 -4.412246e+00 0
1.391476e+02 -5.411542e+00 0
1.368445e+02 -6.495077e+00 0
1.339582e+02 -7.485122e+00 0
1.306128e+02 -8.228806e+00 0
1.269952e+02 -8.651018e+00 0
1.232897e+02 -8.750138e+00 0
1.196467e+02 -8.572010e+00 0
1.161731e+02 -8.183733e+00 0
1.129345e+02 -7.654399e+00 0
1.099646e+02 -7.043997e+00 0
1.072751e+02 -6.399830e+00 0
1.048637e+02 -5.758057e+00 0
1.027159e+02 -5.145243e+00 0
1.008088e+02 -4.578493e+00 0
9.911609e+01 -4.066548e+00 0
9.761109e+01 -3.611746e+00 0
9.626887e+01 -3.212078e+00 0
9.506717e+01 -2.862911e+00 0
9.398675e+01 -2.558234e+00 0
9.301144e+01 -2.291473e+00 0
9.212798e+01 -2.055981e+00 0
9.132594e+01 -1.845340e+00 0
9.059761e+01 -1.653614e+00 0
8.993813e+01 -1.475788e+00 0
8.934573e+01 -1.308715e+00 0
8.882242e+01 -1.154689e+00 0
8.837155e+01 -1.004247e+00 0
8.837155e+01 -9.267470e-01 0
1.419139e+02 -1.780496e-02 0
1.419139e+02 -2.875553e-02 0
1.418948e+02 -7.387177e-02 0
1.418366e+02 -1.773224e-01 0
1.416744e+02 -3.554932e-01 0
1.413301e+02 -6.049256e-01 0
1.407322e+02 -8.924131e-01 0
1.398930e+02 -1.185170e+00 0
1.388383e+02 -1.487563e+00 0
1.375568e+02 -1.828092e+00 0
1.359958e+02 -2.232457e+00 0
1.340735e+02 -2.699565e+00 0
1.317235e+02 -3.189192e+00 0
1.289458e+02 -3.636170e+00 0
1.258142e+02 -3.980201e+00 0
1.224493e+02 -4.186268e+00 0
1.189845e+02 -4.247927e+00 0
1.155413e+02 -4.180283e+00 0
1.122171e+02 -4.010190e+00 0
1.090805e+02 -3.767834e+00 0
1.061741e+02 -3.481230e+00 0
1.035194e+02 -3.173727e+00 0
1.011217e+02 -2.863621e+00 0
9.897361e+01 -2.564418e+00 0
9.705962e+01 -2.285111e+00 0
9.535902e+01 -2.030728e+00 0
9.384919e+01 -1.803152e+00 0
9.250764e+01 -1.602014e+00 0
9.131333e+01 -1.425489e+00 0
9.024744e+01 -1.270921e+00 0
8.929368e+01 -1.135257e+00 0
8.843839e+01 -1.015346e+00 0
8.767053e+01 -9.081568e-01 0
8.698154e+01 -8.110017e-01 0
8.636505e+01 -7.218988e-01 0
8.581644e+01 -6.402290e-01 0
8.533185e+01 -5.682286e-01 0
8.490485e+01 -5.071973e-01 0
8.490485e+01 -4.792242e-01 0
0.000000e+00 0.000000e+00 0
0.000000e+00 0.000000e+00 0
0.000000e+00 0.000000e+00 0
-2.609953e-15 0.000000e+00 0
0.000000e+00 0.000000e+00 0
0.000000e+00 0.000000e+00 0
-4.431342e-15 0.000000e+00 0
0.000000e+00 0.000000e+00 0
0.000000e+00 0.000000e+00 0
0.000000e+00 0.000000e+00 0
0.000000e+00 0.000000e+00 0
0.000000e+00 0.000000e+00 0
8.267040e-16 0.000000e+00 0
0.000000e+00 0.000000e+00 0
0.000000e+00 0.000000e+00 0
0.000000e+00 0.000000e+00 0
0.000000e+00 0.000000e+00 0
0.000000e+00 0.000000e+00 0
0.000000e+00 0.000000e+00 0
0.000000e+00 0.000000e+00 0
0.000000e+00 0.000000e+00 0
0.000000e+00 0.000000e+00 0
0.000000e+00 0.000000e+00 0
0.000000e+00 0.000000e+00 0
0.000000e+00 0.000000e+00 0
0.000000e+00 0.000000e+00 0
0.000000e+00 0.000000e+00 0
0.000000e+00 0.000000e+00 0
0.000000e+00 0.000000e+00 0
0.000000e+00 0.000000e+00 0
0.000000e+00 0.000000e+00 0
0.000000e+00 0.000000e+00 0
0.000000e+00 0.000000e+00 0
0.000000e+00 0.000000e+00 0
0.000000e+00 0.000000e+00 0
0.000000e+00 0.000000e+00 0
0.000000e+00 0.000000e+00 0
0.000000e+00 0.000000e+00 0
0.000000e+00 0.000000e+00 0
</DataArray>
<DataArray Name="Pressure" type="Float64" format="ascii">
0.000000e+00 0.000000e+00 0.000000e+00 0.000000e+00 -6.873636e+02 -1.374727e+03 -1.400595e+03 -1.459613e+03 -1.532081e+03 -1.617613e+03 -1.714902e+03 -1.808271e+03 -1.840588e+03 -1.726667e+03 -1.443274e+03 -1.062720e+03 -6.659366e+02 -2.966354e+02 2.181686e+01 2.818314e+02 4.856126e+02 6.440620e+02 7.577872e+02 8.254825e+02 8.579478e+02 8.636951e+02 8.490722e+02 8.188045e+02 7.764292e+02 7.246089e+02 6.653607e+02 6.002288e+02 5.304193e+02 4.569086e+02 3.805404e+02 3.021291e+02 2.226116e+02 1.490449e+02 2.884566e+01 
0.000000e+00 0.000000e+00 0.000000e+00 0.000000e+00 -7.052054e+02 -1.410411e+03 -1.431948e+03 -1.483313e+03 -1.550532e+03 -1.634258e+03 -1.735579e+03 -1.844170e+03 -1.889310e+03 -1.764443e+03 -1.465749e+03 -1.081219e+03 -6.828778e+02 -3.125310e+02 7.142381e+00 2.684342e+02 4.735283e+02 6.312010e+02 7.436895e+02 8.122365e+02 8.461260e+02 8.533268e+02 8.400349e+02 8.109463e+02 7.695991e+02 7.186617e+02 6.601552e+02 5.956233e+02 5.262618e+02 4.530170e+02 3.766601e+02 2.978396e+02 2.171234e+02 1.404648e+02 0.000000e+00 
-5.344672e+01 -1.080945e+02 -2.192049e+02 -3.354248e+02 -8.757606e+02 -1.417716e+03 -1.479880e+03 -1.503166e+03 -1.560875e+03 -1.643182e+03 -1.747240e+03 -1.850625e+03 -1.872575e+03 -1.725236e+03 -1.427410e+03 -1.059360e+03 -6.787743e+02 -3.236119e+02 -1.494007e+01 2.393830e+02 4.404920e+02 5.936463e+02 7.029496e+02 7.727098e+02 8.097923e+02 8.208495e+02 8.114551e+02 7.860190e+02 7.479490e+02 6.998560e+02 6.437367e+02 5.811186e+02 5.131684e+02 4.407627e+02 3.645178e+02 2.847579e+02 2.013996e+02 1.166132e+02 0.000000e+00 
-5.339672e+01 -2.161890e+02 -4.384098e+02 -6.708497e+02 -9.670972e+02 -1.255101e+03 -1.389061e+03 -1.441459e+03 -1.506495e+03 -1.581223e+03 -1.657756e+03 -1.704203e+03 -1.665554e+03 -1.509606e+03 -1.253764e+03 -9.417277e+02 -6.156908e+02 -3.063227e+02 -3.190434e+01 1.993721e+02 3.861974e+02 5.308722e+02 6.367798e+02 7.080400e+02 7.496805e+02 7.667491e+02 7.637569e+02 7.444895e+02 7.120197e+02 6.687965e+02 6.167505e+02 5.573868e+02 4.918573e+02 4.210033e+02 3.453600e+02 2.651014e+02 1.798970e+02 8.577070e+01 0.000000e+00 
1.000000e-01 -2.146277e+02 -4.319411e+02 -6.531661e+02 -8.711044e+02 -1.068724e+03 -1.222310e+03 -1.327779e+03 -1.404920e+03 -1.463049e+03 -1.496685e+03 -1.488543e+03 -1.416389e+03 -1.269870e+03 -1.059356e+03 -8.085817e+02 -5.434798e+02 -2.855825e+02 -4.978351e+01 1.553945e+02 3.263915e+02 4.629071e+02 5.664989e+02 6.398654e+02 6.864314e+02 7.098491e+02 7.136207e+02 7.008901e+02 6.743654e+02 6.363145e+02 5.885974e+02 5.327088e+02 4.698179e+02 4.007990e+02 3.262433e+02 2.464488e+02 1.613808e+02 6.326759e+01 0.000000e+00 
1.000000e-01 -2.119129e+02 -4.211283e+02 -6.257744e+02 -8.199705e+02 -9.936198e+02 -1.136458e+03 -1.244668e+03 -1.321040e+03 -1.366731e+03 -1.377723e+03 -1.345734e+03 -1.262410e+03 -1.125616e+03 -9.427116e+02 -7.284097e+02 -5.001010e+02 -2.738676e+02 -6.226923e+01 1.262833e+02 2.871386e+02 4.185576e+02 5.208306e+02 5.955859e+02 6.452687e+02 6.727096e+02 6.807994e+02 6.722754e+02 6.496026e+02 6.149224e+02 5.700427e+02 5.164516e+02 4.553411e+02 3.876350e+02 3.140205e+02 2.349908e+02 1.509188e+02 5.376623e+01 0.000000e+00 
-2.651693e+01 -2.107593e+02 -4.167841e+02 -6.160662e+02 -8.034524e+02 -9.706570e+02 -1.109961e+03 -1.217379e+03 -1.292465e+03 -1.334352e+03 -1.339365e+03 -1.301608e+03 -1.216031e+03 -1.082452e+03 -9.076439e+02 -7.041106e+02 -4.868944e+02 -2.704182e+02 -6.643209e+01 1.167927e+02 2.743490e+02 4.040931e+02 5.059157e+02 5.810918e+02 6.317551e+02 6.604786e+02 6.699586e+02 6.627996e+02 6.413849e+02 6.078113e+02 5.638678e+02 5.110400e+02 4.505285e+02 3.832785e+02 3.100187e+02 2.313213e+02 1.477060e+02 5.119694e+01 -5.851921e-01 
</DataArray>
<DataArray Name="Stream" type="Float64" format="ascii">
0.000000e+00 0.000000e+00 0.000000e+00 0.000000e+00 0.000000e+00 0.000000e+00 0.000000e+00 0.000000e+00 0.000000e+00 0.000000e+00 0.000000e+00 0.000000e+00 0.000000e+00 0.000000e+00 0.000000e+00 0.000000e+00 0.000000e+00 0.000000e+00 0.000000e+00 0.000000e+00 0.000000e+00 0.000000e+00 0.000000e+00 0.000000e+00 0.000000e+00 0.000000e+00 0.000000e+00 0.000000e+00 0.000000e+00 0.000000e+00 0.000000e+00 0.000000e+00 0.000000e+00 0.000000e+00 0.000000e+00 0.000000e+00 0.000000e+00 0.000000e+00 0.000000e+00 
0.000000e+00 0.000000e+00 0.000000e+00 0.000000e+00 0.000000e+00 0.000000e+00 -1.234182e+00 -2.249373e+00 -3.132691e+00 -3.953906e+00 -4.751294e+00 -5.511809e+00 -6.121228e+00 -6.235572e+00 -5.726292e+00 -4.964571e+00 -4.060902e+00 -3.096135e+00 -2.131970e+00 -1.197613e+00 -3.058722e-01 5.369062e-01 1.290612e+00 1.958065e+00 2.549947e+00 3.076825e+00 3.547843e+00 3.970766e+00 4.352178e+00 4.697635e+00 5.011778e+00 5.298401e+00 5.560488e+00 5.800186e+00 6.018665e+00 6.215755e+00 6.389057e+00 6.532405e+00 6.532405e+00 
0.000000e+00 0.000000e+00 0.000000e+00 0.000000e+00 0.000000e+00 0.000000e+00 -1.729361e+00 -2.923582e+00 -3.805676e+00 -4.515550e+00 -5.114503e+00 -5.569898e+00 -5.572025e+00 -4.924082e+00 -3.803851e+00 -2.387810e+00 -8.196889e-01 7.933302e-01 2.376954e+00 3.885116e+00 5.292000e+00 6.583798e+00 7.751656e+00 8.797708e+00 9.730738e+00 1.056228e+01 1.130439e+01 1.196847e+01 1.256482e+01 1.310238e+01 1.358875e+01 1.403017e+01 1.443161e+01 1.479667e+01 1.512756e+01 1.542482e+01 1.568667e+01 1.590916e+01 1.590916e+01 
0.000000e+00 1.093877e-14 1.094159e-14 1.095021e-14 1.097422e-14 1.098685e-14 4.376046e-01 8.631233e-01 1.372717e+00 1.968744e+00 2.684953e+00 3.588720e+00 4.744086e+00 6.157810e+00 7.778211e+00 9.526206e+00 1.132089e+01 1.309359e+01 1.479319e+01 1.638630e+01 1.785420e+01 1.918890e+01 2.038971e+01 2.146221e+01 2.241618e+01 2.326349e+01 2.401649e+01 2.468707e+01 2.528605e+01 2.582291e+01 2.630574e+01 2.674125e+01 2.713477e+01 2.749036e+01 2.781080e+01 2.809763e+01 2.835118e+01 2.857189e+01 2.857189e+01 
0.000000e+00 2.463193e+01 2.463828e+01 2.465769e+01 2.471176e+01 2.474019e+01 2.507800e+01 2.535775e+01 2.570931e+01 2.613646e+01 2.665680e+01 2.729758e+01 2.808089e+01 2.900681e+01 3.005066e+01 3.117229e+01 3.232724e+01 3.347495e+01 3.458303e+01 3.562857e+01 3.659735e+01 3.748225e+01 3.828152e+01 3.899753e+01 3.963553e+01 4.020240e+01 4.070567e+01 4.115285e+01 4.155096e+01 4.190625e+01 4.222418e+01 4.250927e+01 4.276522e+01 4.299489e+01 4.320038e+01 4.338325e+01 4.354478e+01 4.368712e+01 4.368712e+01 
0.000000e+00 4.859230e+01 4.859752e+01 4.861174e+01 4.864418e+01 4.861895e+01 4.885556e+01 4.899232e+01 4.916745e+01 4.938378e+01 4.964852e+01 4.997127e+01 5.035894e+01 5.081053e+01 5.131582e+01 5.185795e+01 5.241747e+01 5.297583e+01 5.351755e+01 5.403114e+01 5.450908e+01 5.494725e+01 5.534427e+01 5.570084e+01 5.601912e+01 5.630218e+01 5.655352e+01 5.677670e+01 5.697510e+01 5.715183e+01 5.730956e+01 5.745058e+01 5.757675e+01 5.768957e+01 5.779018e+01 5.787954e+01 5.795866e+01 5.802907e+01 5.802907e+01 
0.000000e+00 7.193655e+01 7.193655e+01 7.193655e+01 7.193655e+01 7.185021e+01 7.198873e+01 7.198873e+01 7.198873e+01 7.198873e+01 7.198873e+01 7.198873e+01 7.198873e+01 7.198873e+01 7.198873e+01 7.198873e+01 7.198873e+01 7.198873e+01 7.198873e+01 7.198873e+01 7.198873e+01 7.198873e+01 7.198873e+01 7.198873e+01 7.198873e+01 7.198873e+01 7.198873e+01 7.198873e+01 7.198873e+01 7.198873e+01 7.198873e+01 7.198873e+01 7.198873e+01 7.198873e+01 7.198873e+01 7.198873e+01 7.198873e+01 7.198873e+01 7.198873e+01 
</DataArray>
<DataArray Name="Vorticity" type="Float64" format="ascii">
0.000000e+00 2.077405e+01 1.896486e+01 -3.199956e+01 6.588259e+02 0.000000e+00 -8.886112e+01 -1.619549e+02 -2.255538e+02 -2.846812e+02 -3.420932e+02 -3.968502e+02 -4.407284e+02 -4.489612e+02 -4.122930e+02 -3.574491e+02 -2.923849e+02 -2.229217e+02 -1.535018e+02 -8.622815e+01 -2.202280e+01 3.865725e+01 9.292406e+01 1.409807e+02 1.835962e+02 2.215314e+02 2.554447e+02 2.858952e+02 3.133568e+02 3.382297e+02 3.608480e+02 3.814849e+02 4.003552e+02 4.176134e+02 4.333439e+02 4.475344e+02 4.600121e+02 4.703332e+02 4.703332e+02 
2.317060e+01 1.535782e+01 3.158531e+01 7.132887e+00 -5.720452e+01 -1.425727e+02 3.925306e+01 6.432293e+01 9.213647e+01 1.234977e+02 1.601008e+02 2.050611e+02 2.687311e+02 3.077147e+02 2.899353e+02 2.796870e+02 2.664051e+02 2.514468e+02 2.373504e+02 2.236308e+02 2.097067e+02 1.932147e+02 1.811536e+02 1.713719e+02 1.629557e+02 1.554844e+02 1.487354e+02 1.425722e+02 1.368999e+02 1.316471e+02 1.267573e+02 1.221842e+02 1.178894e+02 1.138410e+02 1.100130e+02 1.063851e+02 1.029780e+02 9.944310e+01 1.023965e+02 
-6.083013e+02 -6.617887e+02 -9.147194e+02 -8.419509e+02 -9.989829e+02 -1.997758e+02 1.267469e+02 1.786213e+02 2.205970e+02 2.600605e+02 3.021478e+02 3.579823e+02 3.891568e+02 3.790138e+02 3.648324e+02 3.449253e+02 3.229706e+02 3.010907e+02 2.803045e+02 2.612145e+02 2.440685e+02 2.289368e+02 2.153368e+02 2.031669e+02 1.923060e+02 1.826006e+02 1.738933e+02 1.660395e+02 1.589140e+02 1.524116e+02 1.464453e+02 1.409447e+02 1.358530e+02 1.311264e+02 1.267330e+02 1.226503e+02 1.189341e+02 1.143973e+02 1.182954e+02 
8.867495e+02 1.773499e+03 1.773956e+03 1.775353e+03 1.779247e+03 9.079219e+02 8.163462e+02 7.503412e+02 6.946877e+02 6.435451e+02 5.930394e+02 5.383410e+02 4.836678e+02 4.355535e+02 3.922238e+02 3.530511e+02 3.178976e+02 2.866977e+02 2.592986e+02 2.354481e+02 2.148195e+02 1.970437e+02 1.817241e+02 1.685026e+02 1.570591e+02 1.471109e+02 1.384141e+02 1.307623e+02 1.239846e+02 1.179409e+02 1.125179e+02 1.076251e+02 1.031910e+02 9.915954e+01 9.548786e+01 9.213867e+01 8.915045e+01 8.507587e+01 8.828972e+01 
-2.417629e+01 -2.395966e+01 -2.369100e+01 -2.332865e+01 -2.455018e+01 -2.612964e+01 -2.641414e+01 -2.681352e+01 -2.725939e+01 -2.775164e+01 -2.832773e+01 -2.903344e+01 -2.987819e+01 -3.081848e+01 -3.176983e+01 -3.264964e+01 -3.339893e+01 -3.398656e+01 -3.440480e+01 -3.466215e+01 -3.477599e+01 -3.476676e+01 -3.465444e+01 -3.445823e+01 -3.419555e+01 -3.388134e+01 -3.352783e+01 -3.314473e+01 -3.273965e+01 -3.231848e+01 -3.188582e+01 -3.144519e+01 -3.099937e+01 -3.055043e+01 -3.009971e+01 -2.964853e+01 -2.917895e+01 -2.901578e+01 -2.783779e+01 
-2.218009e+01 -2.201364e+01 -2.180840e+01 -2.159943e+01 -2.138717e+01 -2.117369e+01 -2.096458e+01 -2.075721e+01 -2.054649e+01 -2.032914e+01 -2.010425e+01 -1.987442e+01 -1.964435e+01 -1.941718e+01 -1.919330e+01 -1.897146e+01 -1.875007e+01 -1.852785e+01 -1.830412e+01 -1.807872e+01 -1.785186e+01 -1.762391e+01 -1.739524e+01 -1.716625e+01 -1.693737e+01 -1.670905e+01 -1.648168e+01 -1.625565e+01 -1.603127e+01 -1.580885e+01 -1.558863e+01 -1.537084e+01 -1.515568e+01 -1.494333e+01 -1.473382e+01 -1.452728e+01 -1.431915e+01 -1.418782e+01 -1.376263e+01 
-1.680786e+03 -1.680786e+03 -1.680410e+03 -1.679386e+03 -1.677050e+03 -1.672651e+03 -1.665588e+03 -1.655742e+03 -1.643133e+03 -1.627557e+03 -1.608495e+03 -1.585257e+03 -1.557345e+03 -1.524831e+03 -1.488450e+03 -1.449416e+03 -1.409131e+03 -1.368929e+03 -1.329925e+03 -1.292947e+03 -1.258535e+03 -1.226987e+03 -1.198401e+03 -1.172728e+03 -1.149812e+03 -1.129432e+03 -1.111335e+03 -1.095267e+03 -1.080981e+03 -1.068257e+03 -1.056901e+03 -1.046747e+03 -1.037663e+03 -1.029540e+03 -1.022296e+03 -1.015862e+03 -1.010166e+03 -1.005096e+03 -1.005096e+03 
</DataArray>