<?xml version="1.0"?>
<VTKFile type="StructuredGrid">
<StructuredGrid WholeExtent="0 78 0 14 0 0 ">
<Piece Extent="0 78 0 14 0 0 ">
<Points>
<DataArray type="Float64" format="ascii" NumberOfComponents="3">
0.000000e+00 0.000000e+00 0.000000e+00
6.410256e-02 0.000000e+00 0.000000e+00
1.282051e-01 0.000000e+00 0.000000e+00
1.923077e-01 0.000000e+00 0.000000e+00
2.564103e-01 0.000000e+00 0.000000e+00
3.205128e-01 0.000000e+00 0.000000e+00
3.846154e-01 0.000000e+00 0.000000e+00
4.487179e-01 0.000000e+00 0.000000e+00
5.128205e-01 0.000000e+00 0.000000e+00
5.769231e-01 0.000000e+00 0.000000e+00
6.410256e-01 0.000000e+00 0.000000e+00
7.051282e-01 0.000000e+00 0.000000e+00
7.692308e-01 0.000000e+00 0.000000e+00
8.333333e-01 0.000000e+00 0.000000e+00
8.974359e-01 0.000000e+00 0.000000e+00
9.615385e-01 0.000000e+00 0.000000e+00
1.025641e+00 0.000000e+00 0.000000e+00
1.089744e+00 0.000000e+00 0.000000e+00
1.153846e+00 0.000000e+00 0.000000e+00
1.217949e+00 0.000000e+00 0.000000e+00
1.282051e+00 0.000000e+00 0.000000e+00
1.346154e+00 0.000000e+00 0.000000e+00
1.410256e+00 0.000000e+00 0.000000e+00
1.474359e+00 0.000000e+00 0.000000e+00
1.538462e+00 0.000000e+00 0.000000e+00
1.602564e+00 0.000000e+00 0.000000e+00
1.666667e+00 0.000000e+00 0.000000e+00
1.730769e+00 0.000000e+00 0.000000e+00
1.794872e+00 0.000000e+00 0.000000e+00
1.858974e+00 0.000000e+00 0.000000e+00
1.923077e+00 0.000000e+00 0.000000e+00
1.987179e+00 0.000000e+00 0.000000e+00
2.051282e+00 0.000000e+00 0.000000e+00
2.115385e+00 0.000000e+00 0.000000e+00
2.179487e+00 0.000000e+00 0.000000e+00
2.243590e+00 0.000000e+00 0.000000e+00
2.307692e+00 0.000000e+00 0.000000e+00
2.371795e+00 0.000000e+00 0.000000e+00
2.435897e+00 0.000000e+00 0.000000e+00
2.500000e+00 0.000000e+00 0.000000e+00
2.564103e+00 0.000000e+00 0.000000e+00
2.628205e+00 0.000000e+00 0.000000e+00
2.692308e+00 0.000000e+00 0.000000e+00
2.756410e+00 0.000000e+00 0.000000e+00
2.820513e+00 0.000000e+00 0.000000e+00
2.884615e+00 0.000000e+00 0.000000e+00
2.948718e+00 0.000000e+00 0.000000e+00
3.012821e+00 0.000000e+00 0.000000e+00
3.076923e+00 0.000000e+00 0.000000e+00
3.141026e+00 0.000000e+00 0.000000e+00
3.205128e+00 0.000000e+00 0.000000e+00
3.269231e+00 0.000000e+00 0.000000e+00
3.333333e+00 0.000000e+00 0.000000e+00
3.397436e+00 0.000000e+00 0.000000e+00
3.461538e+00 0.000000e+00 0.000000e+00
3.525641e+00 0.000000e+00 0.000000e+00
3.589744e+00 0.000000e+00 0.000000e+00
3.653846e+00 0.000000e+00 0.000000e+00
3.717949e+00 0.000000e+00 0.000000e+00
3.782051e+00 0.000000e+00 0.000000e+00
3.846154e+00 0.000000e+00 0.000000e+00
3.910256e+00 0.000000e+00 0.000000e+00
3.974359e+00 0.000000e+00 0.000000e+00
4.038462e+00 0.000000e+00 0.000000e+00
4.102564e+00 0.000000e+00 0.000000e+00
4.166667e+00 0.000000e+00 0.000000e+00
4.230769e+00 0.000000e+00 0.000000e+00
4.294872e+00 0.000000e+00 0.000000e+00
4.358974e+00 0.000000e+00 0.000000e+00
4.423077e+00 0.000000e+00 0.000000e+00
4.487179e+00 0.000000e+00 0.000000e+00
4.551282e+00 0.000000e+00 0.000000e+00
4.615385e+00 0.000000e+00 0.000000e+00
4.679487e+00 0.000000e+00 0.000000e+00
4.743590e+00 0.000000e+00 0.000000e+00
4.807692e+00 0.000000e+00 0.000000e+00
4.871795e+00 0.000000e+00 0.000000e+00
4.935897e+00 0.000000e+00 0.000000e+00
5.000000e+00 0.000000e+00 0.000000e+00
0.000000e+00 7.142857e-02 0.000000e+00
6.410256e-02 7.142857e-02 0.000000e+00
1.282051e-01 7.142857e-02 0.000000e+00
1.923077e-01 7.142857e-02 0.000000e+00
2.564103e-01 7.142857e-02 0.000000e+00
3.205128e-01 7.142857e-02 0.000000e+00
3.846154e-01 7.142857e-02 0.000000e+00
4.487179e-01 7.142857e-02 0.000000e+00
5.128205e-01 7.142857e-02 0.000000e+00
5.769231e-01 7.142857e-02 0.000000e+00
6.410256e-01 7.142857e-02 0.000000e+00
7.051282e-01 7.142857e-02 0.000000e+00
7.692308e-01 7.142857e-02 0.000000e+00
8.333333e-01 7.142857e-02 0.000000e+00
8.974359e-01 7.142857e-02 0.000000e+00
9.615385e-01 7.142857e-02 0.000000e+00
1.025641e+00 7.142857e-02 0.000000e+00
1.089744e+00 7.142857e-02 0.000000e+00
1.153846e+00 7.142857e-02 0.000000e+00
1.217949e+00 7.142857e-02 0.000000e+00
1.282051e+00 7.142857e-02 0.000000e+00
1.346154e+00 7.142857e-02 0.000000e+00
1.410256e+00 7.142857e-02 0.000000e+00
1.474359e+00 7.142857e-02 0.000000e+00
1.538462e+00 7.142857e-02 0.000000e+00
1.602564e+00 7.142857e-02 0.000000e+00
1.666667e+00 7.142857e-02 0.000000e+00
1.730769e+00 7.142857e-02 0.000000e+00
1.794872e+00 7.142857e-02 0.000000e+00
1.858974e+00 7.142857e-02 0.000000e+00
1.923077e+00 7.142857e-02 0.000000e+00
1.987179e+00 7.142857e-02 0.000000e+00
2.051282e+00 7.142857e-02 0.000000e+00
2.115385e+00 7.142857e-02 0.000000e+00
2.179487e+00 7.142857e-02 0.000000e+00
2.243590e+00 7.142857e-02 0.000000e+00
2.307692e+00 7.142857e-02 0.000000e+00
2.371795e+00 7.142857e-02 0.000000e+00
2.435897e+00 7.142857e-02 0.000000e+00
2.500000e+00 7.142857e-02 0.000000e+00
2.564103e+00 7.142857e-02 0.000000e+00
2.628205e+00 7.142857e-02 0.000000e+00
2.692308e+00 7.142857e-02 0.000000e+00
2.756410e+00 7.142857e-02 0.000000e+00
2.820513e+00 7.142857e-02 0.000000e+00
2.884615e+00 7.142857e-02 0.000000e+00
2.948718e+00 7.142857e-02 0.000000e+00
3.012821e+00 7.142857e-02 0.000000e+00
3.076923e+00 7.142857e-02 0.000000e+00
3.141026e+00 7.142857e-02 0.000000e+00
3.205128e+00 7.142857e-02 0.000000e+00
3.269231e+00 7.142857e-02 0.000000e+00
3.333333e+00 7.142857e-02 0.000000e+00
3.397436e+00 7.142857e-02 0.000000e+00
3.461538e+00 7.142857e-02 0.000000e+00
3.525641e+00 7.142857e-02 0.000000e+00
3.589744e+00 7.142857e-02 0.000000e+00
3.653846e+00 7.142857e-02 0.000000e+00
3.717949e+00 7.142857e-02 0.000000e+00
3.782051e+00 7.142857e-02 0.000000e+00
3.846154e+00 7.142857e-02 0.000000e+00
3.910256e+00 7.142857e-02 0.000000e+00
3.974359e+00 7.142857e-02 0.000000e+00
4.038462e+00 7.142857e-02 0.000000e+00
4.102564e+00 7.142857e-02 0.000000e+00
4.166667e+00 7.142857e-02 0.000000e+00
4.230769e+00 7.142857e-02 0.000000e+00
4.294872e+00 7.142857e-02 0.000000e+00
4.358974e+00 7.142857e-02 0.000000e+00
4.423077e+00 7.142857e-02 0.000000e+00
4.487179e+00 7.142857e-02 0.000000e+00
4.551282e+00 7.142857e-02 0.000000e+00
4.615385e+00 7.142857e-02 0.000000e+00
4.679487e+00 7.142857e-02 0.000000e+00
4.743590e+00 7.142857e-02 0.000000e+00
4.807692e+00 7.142857e-02 0.000000e+00
4.871795e+00 7.142857e-02 0.000000e+00
4.935897e+00 7.142857e-02 0.000000e+00
5.000000e+00 7.142857e-02 0.000000e+00
0.000000e+00 1.428571e-01 0.000000e+00
6.410256e-02 1.428571e-01 0.000000e+00
1.282051e-01 1.428571e-01 0.000000e+00
1.923077e-01 1.428571e-01 0.000000e+00
2.564103e-01 1.428571e-01 0.000000e+00
3.205128e-01 1.428571e-01 0.000000e+00
3.846154e-01 1.428571e-01 0.000000e+00
4.487179e-01 1.428571e-01 0.000000e+00
5.128205e-01 1.428571e-01 0.000000e+00
5.769231e-01 1.428571e-01 0.000000e+00
6.410256e-01 1.428571e-01 0.000000e+00
7.051282e-01 1.428571e-01 0.000000e+00
7.692308e-01 1.428571e-01 0.000000e+00
8.333333e-01 1.428571e-01 0.000000e+00
8.974359e-01 1.428571e-01 0.000000e+00
9.615385e-01 1.428571e-01 0.000000e+00
1.025641e+00 1.428571e-01 0.000000e+00
1.089744e+00 1.428571e-01 0.000000e+00
1.153846e+00 1.428571e-01 0.000000e+00
1.217949e+00 1.428571e-01 0.000000e+00
1.282051e+00 1.428571e-01 0.000000e+00
1.346154e+00 1.428571e-01 0.000000e+00
1.410256e+00 1.428571e-01 0.000000e+00
1.474359e+00 1.428571e-01 0.000000e+00
1.538462e+00 1.428571e-01 0.000000e+00
1.602564e+00 1.428571e-01 0.000000e+00
1.666667e+00 1.428571e-01 0.000000e+00
1.730769e+00 1.428571e-01 0.000000e+00
1.794872e+00 1.428571e-01 0.000000e+00
1.858974e+00 1.428571e-01 0.000000e+00
1.923077e+00 1.428571e-01 0.000000e+00
1.987179e+00 1.428571e-01 0.000000e+00
2.051282e+00 1.428571e-01 0.000000e+00
2.115385e+00 1.428571e-01 0.000000e+00
2.179487e+00 1.428571e-01 0.000000e+00
2.243590e+00 1.428571e-01 0.000000e+00
2.307692e+00 1.428571e-01 0.000000e+00
2.371795e+00 1.428571e-01 0.000000e+00
2.435897e+00 1.428571e-01 0.000000e+00
2.500000e+00 1.428571e-01 0.000000e+00
2.564103e+00 1.428571e-01 0.000000e+00
2.628205e+00 1.428571e-01 0.000000e+00
2.692308e+00 1.428571e-01 0.000000e+00
2.756410e+00 1.428571e-01 0.000000e+00
2.820513e+00 1.428571e-01 0.000000e+00
2.884615e+00 1.428571e-01 0.000000e+00
2.948718e+00 1.428571e-01 0.000000e+00
3.012821e+00 1.428571e-01 0.000000e+00
3.076923e+00 1.428571e-01 0.000000e+00
3.141026e+00 1.428571e-01 0.000000e+00
3.205128e+00 1.428571e-01 0.000000e+00
3.269231e+00 1.428571e-01 0.000000e+00
3.333333e+00 1.428571e-01 0.000000e+00
3.397436e+00 1.428571e-01 0.000000e+00
3.461538e+00 1.428571e-01 0.000000e+00
3.525641e+00 1.428571e-01 0.000000e+00
3.589744e+00 1.428571e-01 0.000000e+00
3.653846e+00 1.428571e-01 0.000000e+00
3.717949e+00 1.428571e-01 0.000000e+00
3.782051e+00 1.428571e-01 0.000000e+00
3.846154e+00 1.428571e-01 0.000000e+00
3.910256e+00 1.428571e-01 0.000000e+00
3.974359e+00 1.428571e-01 0.000000e+00
4.038462e+00 1.428571e-01 0.000000e+00
4.102564e+00 1.428571e-01 0.000000e+00
4.166667e+00 1.428571e-01 0.000000e+00
4.230769e+00 1.428571e-01 0.000000e+00
4.294872e+00 1.428571e-01 0.000000e+00
4.358974e+00 1.428571e-01 0.000000e+00
4.423077e+00 1.428571e-01 0.000000e+00
4.487179e+00 1.428571e-01 0.000000e+00
4.551282e+00 1.428571e-01 0.000000e+00
4.615385e+00 1.428571e-01 0.000000e+00
4.679487e+00 1.428571e-01 0.000000e+00
4.743590e+00 1.428571e-01 0.000000e+00
4.807692e+00 1.428571e-01 0.000000e+00
4.871795e+00 1.428571e-01 0.000000e+00
4.935897e+00 1.428571e-01 0.000000e+00
5.000000e+00 1.428571e-01 0.000000e+00
0.000000e+00 2.142857e-01 0.000000e+00
6.410256e-02 2.142857e-01 0.000000e+00
1.282051e-01 2.142857e-01 0.000000e+00
1.923077e-01 2.142857e-01 0.000000e+00
2.564103e-01 2.142857e-01 0.000000e+00
3.205128e-01 2.142857e-01 0.000000e+00
3.846154e-01 2.142857e-01 0.000000e+00
4.487179e-01 2.142857e-01 0.000000e+00
5.128205e-01 2.142857e-01 0.000000e+00
5.769231e-01 2.142857e-01 0.000000e+00
6.410256e-01 2.142857e-01 0.000000e+00
7.051282e-01 2.142857e-01 0.000000e+00
7.692308e-01 2.142857e-01 0.000000e+00
8.333333e-01 2.142857e-01 0.000000e+00
[...]
<PointData>
<DataArray Name="Velocity" type="Float64" format="ascii" NumberOfComponents="3">
0.000000e+00 0.000000e+00 0
0.000000e+00 0.000000e+00 0
0.000000e+00 0.000000e+00 0
0.000000e+00 0.000000e+00 0
0.000000e+00 0.000000e+00 0
0.000000e+00 0.000000e+00 0
0.000000e+00 0.000000e+00 0
0.000000e+00 0.000000e+00 0
0.000000e+00 0.000000e+00 0
0.000000e+00 0.000000e+00 0
0.000000e+00 0.000000e+00 0
0.000000e+00 0.000000e+00 0
0.000000e+00 0.000000e+00 0
0.000000e+00 0.000000e+00 0
0.000000e+00 0.000000e+00 0
0.000000e+00 0.000000e+00 0
0.000000e+00 0.000000e+00 0
0.000000e+00 0.000000e+00 0
0.000000e+00 0.000000e+00 0
0.000000e+00 0.000000e+00 0
0.000000e+00 0.000000e+00 0
0.000000e+00 0.000000e+00 0
0.000000e+00 0.000000e+00 0
0.000000e+00 0.000000e+00 0
0.000000e+00 0.000000e+00 0
0.000000e+00 0.000000e+00 0
0.000000e+00 0.000000e+00 0
0.000000e+00 0.000000e+00 0
0.000000e+00 0.000000e+00 0
0.000000e+00 0.000000e+00 0
0.000000e+00 0.000000e+00 0
0.000000e+00 0.000000e+00 0
0.000000e+00 0.000000e+00 0
0.000000e+00 0.000000e+00 0
0.000000e+00 0.000000e+00 0
1.083880e-15 0.000000e+00 0
0.000000e+00 0.000000e+00 0
0.000000e+00 0.000000e+00 0
0.000000e+00 0.000000e+00 0
3.534974e-16 0.000000e+00 0
0.000000e+00 0.000000e+00 0
0.000000e+00 0.000000e+00 0
0.000000e+00 0.000000e+00 0
-7.464476e-16 0.000000e+00 0
0.000000e+00 0.000000e+00 0
0.000000e+00 0.000000e+00 0
0.000000e+00 0.000000e+00 0
1.440192e-15 0.000000e+00 0
0.000000e+00 0.000000e+00 0
0.000000e+00 0.000000e+00 0
0.000000e+00 0.000000e+00 0
7.073666e-16 0.000000e+00 0
0.000000e+00 0.000000e+00 0
0.000000e+00 0.000000e+00 0
0.000000e+00 0.000000e+00 0
4.351767e-17 0.000000e+00 0
0.000000e+00 0.000000e+00 0
0.000000e+00 0.000000e+00 0
0.000000e+00 0.000000e+00 0
3.917976e-16 0.000000e+00 0
0.000000e+00 0.000000e+00 0
0.000000e+00 0.000000e+00 0
0.000000e+00 0.000000e+00 0
-7.506494e-16 0.000000e+00 0
0.000000e+00 0.000000e+00 0
0.000000e+00 0.000000e+00 0
0.000000e+00 0.000000e+00 0
0.000000e+00 0.000000e+00 0
0.000000e+00 0.000000e+00 0
0.000000e+00 0.000000e+00 0
-1.191972e-15 0.000000e+00 0
0.000000e+00 0.000000e+00 0
0.000000e+00 0.000000e+00 0
0.000000e+00 0.000000e+00 0
0.000000e+00 0.000000e+00 0
0.000000e+00 0.000000e+00 0
0.000000e+00 0.000000e+00 0
0.000000e+00 0.000000e+00 0
-3.955433e-16 0.000000e+00 0
0.000000e+00 0.000000e+00 0
-1.842638e-01 -7.796604e-02 0
-7.099221e-01 3.090134e-02 0
-1.288312e+00 1.020205e-01 0
-1.764922e+00 1.523639e-01 0
-2.326132e+00 2.035419e-01 0
-2.890804e+00 2.599259e-01 0
-3.494343e+00 3.252847e-01 0
7.515493e+01 -3.480211e+00 0
0.000000e+00 0.000000e+00 0
-5.075505e+00 6.490588e+00 0
-9.157506e+00 5.072766e+00 0
-1.242849e+01 4.062656e+00 0
-1.507630e+01 3.337872e+00 0
-1.726381e+01 2.822112e+00 0
-1.912442e+01 2.463168e+00 0
-2.076383e+01 2.221905e+00 0
-2.226316e+01 2.066628e+00 0
-2.368065e+01 1.970007e+00 0
-2.505166e+01 1.908441e+00 0
-2.638985e+01 1.864341e+00 0
-2.769715e+01 1.828107e+00 0
-2.897330e+01 1.796866e+00 0
-3.022050e+01 1.771688e+00 0
-3.144467e+01 1.755331e+00 0
-3.265556e+01 1.750882e+00 0
-3.386635e+01 1.760915e+00 0
-3.509287e+01 1.786705e+00 0
-3.635205e+01 1.827329e+00 0
-3.765863e+01 1.879115e+00 0
-3.902190e+01 1.935956e+00 0
-4.044048e+01 1.992311e+00 0
-4.190912e+01 2.046240e+00 0
-4.342476e+01 2.098598e+00 0
-4.498810e+01 2.150377e+00 0
-4.660234e+01 2.199505e+00 0
-4.827044e+01 2.236040e+00 0
-4.998890e+01 2.232815e+00 0
-5.173451e+01 2.126274e+00 0
-5.342938e+01 1.781771e+00 0
-5.474407e+01 1.024492e+00 0
-5.506108e+01 -2.147922e-01 0
-5.384296e+01 -1.666541e+00 0
-5.142601e+01 -2.955526e+00 0
-4.811565e+01 -3.970569e+00 0
-4.412331e+01 -4.735745e+00 0
-3.963652e+01 -5.277991e+00 0
-3.482905e+01 -5.635698e+00 0
-2.981825e+01 -5.851142e+00 0
-2.469426e+01 -5.946802e+00 0
-1.954575e+01 -5.951771e+00 0
-1.440581e+01 -5.916809e+00 0
-9.325024e+00 -5.890516e+00 0
-4.438772e+00 -5.764894e+00 0
2.247877e-01 -5.506382e+00 0
4.658651e+00 -5.273825e+00 0
8.866881e+00 -5.143783e+00 0
1.284910e+01 -4.885910e+00 0
1.657638e+01 -4.459049e+00 0
2.004623e+01 -4.082966e+00 0
2.327082e+01 -3.765583e+00 0
2.626659e+01 -3.489318e+00 0
2.905032e+01 -3.242043e+00 0
3.163799e+01 -3.017213e+00 0
3.404467e+01 -2.811298e+00 0
3.628445e+01 -2.622160e+00 0
3.837055e+01 -2.448252e+00 0
4.031524e+01 -2.288251e+00 0
4.212982e+01 -2.140890e+00 0
4.382456e+01 -2.004855e+00 0
4.540861e+01 -1.878713e+00 0
4.688989e+01 -1.760787e+00 0
4.827482e+01 -1.648951e+00 0
4.956798e+01 -1.540219e+00 0
5.077145e+01 -1.429893e+00 0
5.188359e+01 -1.309737e+00 0
5.289708e+01 -1.162169e+00 0
5.379574e+01 -9.768046e-01 0
5.379574e+01 -8.751453e-01 0
0.000000e+00 0.000000e+00 0
1.921032e-01 -3.162654e-01 0
1.788369e-01 -3.109876e-01 0
-1.249789e+00 -6.369404e-02 0
-1.721178e+00 1.994038e-01 0
-2.351793e+00 2.780236e-01 0
-2.800464e+00 4.036297e-01 0
-3.485945e+00 5.170812e-01 0
7.468062e+01 -5.376996e+00 0
0.000000e+00 0.000000e+00 0
-2.696104e+00 1.020412e+01 0
-5.050939e+00 8.193356e+00 0
-6.967545e+00 6.595252e+00 0
-8.485983e+00 5.387948e+00 0
-9.689341e+00 4.510793e+00 0
-1.066530e+01 3.900047e+00 0
-1.149309e+01 3.497473e+00 0
-1.224184e+01 3.250200e+00 0
-1.296626e+01 3.107221e+00 0
-1.369606e+01 3.018851e+00 0
-1.441858e+01 2.947855e+00 0
-1.510939e+01 2.878737e+00 0
-1.575276e+01 2.811768e+00 0
-1.634393e+01 2.753840e+00 0
-1.688554e+01 2.713379e+00 0
-1.738612e+01 2.698467e+00 0
-1.785941e+01 2.715891e+00 0
-1.832470e+01 2.769810e+00 0
-1.880672e+01 2.859012e+00 0
-1.932747e+01 2.975014e+00 0
-1.990592e+01 3.099807e+00 0
-2.051794e+01 3.217213e+00 0
-2.113481e+01 3.325380e+00 0
-2.173868e+01 3.430896e+00 0
-2.231993e+01 3.540761e+00 0
-2.287171e+01 3.657489e+00 0
-2.339081e+01 3.773616e+00 0
-2.388250e+01 3.859998e+00 0
-2.439848e+01 3.833714e+00 0
-2.546764e+01 3.353543e+00 0
-2.668966e+01 1.818211e+00 0
-2.587603e+01 -1.004073e+00 0
-2.363050e+01 -4.050485e+00 0
-2.057461e+01 -6.381829e+00 0
-1.695628e+01 -8.137264e+00 0
-1.295265e+01 -9.448146e+00 0
-8.704945e+00 -1.035643e+01 0
-4.296551e+00 -1.094033e+01 0
1.979614e-01 -1.129303e+01 0
4.712402e+00 -1.144647e+01 0
9.194070e+00 -1.146425e+01 0
1.359091e+01 -1.138879e+01 0
1.783361e+01 -1.110611e+01 0
2.183514e+01 -1.064120e+01 0
2.565238e+01 -1.013711e+01 0
2.927747e+01 -9.629741e+00 0
3.265852e+01 -9.126482e+00 0
3.573737e+01 -8.590562e+00 0
3.867455e+01 -8.019644e+00 0
4.145850e+01 -7.459506e+00 0
4.407025e+01 -6.931243e+00 0
4.650462e+01 -6.439999e+00 0
4.876578e+01 -5.985262e+00 0
5.086246e+01 -5.565116e+00 0
5.280529e+01 -5.177469e+00 0
5.460543e+01 -4.820264e+00 0
5.627388e+01 -4.491443e+00 0
5.782116e+01 -4.188887e+00 0
5.925711e+01 -3.910370e+00 0
6.059078e+01 -3.653502e+00 0
6.183036e+01 -3.415646e+00 0
6.298310e+01 -3.193767e+00 0
6.405523e+01 -2.984160e+00 0
6.505193e+01 -2.781953e+00 0
6.597729e+01 -2.580241e+00 0
6.683459e+01 -2.368558e+00 0
6.762724e+01 -2.130686e+00 0
6.836526e+01 -1.840830e+00 0
6.836526e+01 -1.678921e+00 0
0.000000e+00 0.000000e+00 0
9.366298e-01 -8.005911e-01 0
1.474145e+00 -9.270460e-01 0
3.924751e-01 -8.290396e-01 0
3.900074e-01 -6.272114e-01 0
-2.098759e-01 2.674575e-01 0
-3.496002e+00 8.638770e-01 0
-3.482007e+00 5.617615e-01 0
7.463853e+01 -6.335519e+00 0
0.000000e+00 0.000000e+00 0
-1.288908e+00 1.211880e+01 0
-2.415537e+00 9.832383e+00 0
-3.279862e+00 7.890288e+00 0
-3.888135e+00 6.370742e+00 0
-4.289855e+00 5.250504e+00 0
-4.539926e+00 4.473073e+00 0
-4.685566e+00 3.978634e+00 0
-4.789205e+00 3.708169e+00 0
-4.934866e+00 3.590437e+00 0
-5.225432e+00 3.526753e+00 0
-5.563075e+00 3.439205e+00 0
-5.851828e+00 3.314781e+00 0
-6.054104e+00 3.172514e+00 0
-6.162919e+00 3.033944e+00 0
-6.175141e+00 2.916642e+00 0
-6.093485e+00 2.836056e+00 0
-5.923079e+00 2.806768e+00 0
-5.671420e+00 2.842300e+00 0
-5.347532e+00 2.944718e+00 0
-5.022461e+00 3.103954e+00 0
-4.888494e+00 3.262488e+00 0
-4.784427e+00 3.361658e+00 0
-4.599954e+00 3.406505e+00 0
-4.286838e+00 3.419174e+00 0
-3.827443e+00 3.412917e+00 0
-3.196286e+00 3.392779e+00 0
-2.376688e+00 3.362362e+00 0
-1.346372e+00 3.355662e+00 0
-6.111797e-02 3.892578e+00 0
1.872765e+00 4.334810e+00 0
4.781346e+00 1.479572e+00 0
8.330988e+00 -3.623554e+00 0
1.181404e+01 -7.573826e+00 0
1.532410e+01 -1.039251e+01 0
1.892032e+01 -1.246360e+01 0
2.257793e+01 -1.393007e+01 0
2.626738e+01 -1.492335e+01 0
2.997353e+01 -1.555607e+01 0
3.365095e+01 -1.588968e+01 0
3.725104e+01 -1.597103e+01 0
4.074603e+01 -1.584496e+01 0
4.407323e+01 -1.554371e+01 0
4.720417e+01 -1.507693e+01 0
5.021019e+01 -1.447723e+01 0
5.307455e+01 -1.379925e+01 0
5.577663e+01 -1.308066e+01 0
5.829809e+01 -1.234195e+01 0
6.063425e+01 -1.158948e+01 0
6.281558e+01 -1.083402e+01 0
6.485316e+01 -1.009531e+01 0
6.674968e+01 -9.388399e+00 0
6.850792e+01 -8.721465e+00 0
7.013292e+01 -8.097907e+00 0
7.163165e+01 -7.518381e+00 0
7.301222e+01 -6.982035e+00 0
7.428320e+01 -6.487155e+00 0
7.545311e+01 -6.031488e+00 0
7.653022e+01 -5.612416e+00 0
7.752235e+01 -5.227038e+00 0
7.843678e+01 -4.872195e+00 0
7.928027e+01 -4.544440e+00 0
8.005905e+01 -4.239928e+00 0
8.077890e+01 -3.954218e+00 0
8.144541e+01 -3.681937e+00 0
8.206434e+01 -3.416279e+00 0
8.264257e+01 -3.148248e+00 0
8.318965e+01 -2.867775e+00 0
8.372349e+01 -2.532036e+00 0
8.372349e+01 -2.340871e+00 0
0.000000e+00 0.000000e+00 0
2.357734e+00 -1.631240e+00 0
2.964713e+00 -1.280719e+00 0
3.156564e+00 -1.035039e+00 0
3.864976e+00 -1.011496e+00 0
2.899358e+00 -1.212085e+00 0
2.252600e+00 -1.130669e+00 0
-3.240655e+00 -1.176239e-01 0
7.404916e+01 -6.738899e+00 0
0.000000e+00 0.000000e+00 0
-5.123887e-01 1.289575e+01 0
-7.909288e-01 1.041186e+01 0
-8.420918e-01 8.236157e+00 0
-7.096930e-01 6.513379e+00 0
-4.750286e-01 5.237086e+00 0
-1.592593e-01 4.340994e+00 0
2.305703e-01 3.775253e+00 0
6.675983e-01 3.528003e+00 0
1.052217e+00 3.593315e+00 0
9.632765e-01 3.718867e+00 0
6.888712e-01 3.645852e+00 0
4.774371e-01 3.425897e+00 0
4.133160e-01 3.158424e+00 0
5.077515e-01 2.888722e+00 0
7.775055e-01 2.636023e+00 0
1.223493e+00 2.417611e+00 0
1.848346e+00 2.245602e+00 0
2.660803e+00 2.128500e+00 0
3.677438e+00 2.135901e+00 0
4.926829e+00 2.463528e+00 0
6.514288e+00 2.834582e+00 0
8.415914e+00 2.895710e+00 0
1.059523e+01 2.770936e+00 0
1.303481e+01 2.570111e+00 0
1.573840e+01 2.325588e+00 0
1.872416e+01 2.040947e+00 0
2.203586e+01 1.712296e+00 0
2.575459e+01 1.279804e+00 0
3.004979e+01 2.466885e-01 0
3.555801e+01 -2.042333e+00 0
4.195111e+01 -5.378082e+00 0
4.694436e+01 -8.840494e+00 0
5.090357e+01 -1.184280e+01 0
5.434927e+01 -1.430024e+01 0
5.749176e+01 -1.622009e+01 0
6.044449e+01 -1.763486e+01 0
6.327202e+01 -1.859724e+01 0
6.598183e+01 -1.916772e+01 0
6.856682e+01 -1.940225e+01 0
7.101699e+01 -1.935241e+01 0
7.332401e+01 -1.906610e+01 0
7.547850e+01 -1.858500e+01 0
7.748191e+01 -1.794444e+01 0
7.935207e+01 -1.718247e+01 0
8.109541e+01 -1.633969e+01 0
8.271290e+01 -1.545024e+01 0
8.420502e+01 -1.453925e+01 0
8.557674e+01 -1.362432e+01 0
8.684028e+01 -1.272071e+01 0
8.800502e+01 -1.184322e+01 0
8.907698e+01 -1.100368e+01 0
9.006084e+01 -1.020988e+01 0
9.096127e+01 -9.465981e+00 0
9.178328e+01 -8.773484e+00 0
9.253222e+01 -8.132048e+00 0
9.321359e+01 -7.540102e+00 0
9.383284e+01 -6.995264e+00 0
9.439530e+01 -6.494605e+00 0
9.490604e+01 -6.034823e+00 0
9.536991e+01 -5.612335e+00 0
9.579155e+01 -5.223314e+00 0
9.617550e+01 -4.863666e+00 0
9.652636e+01 -4.528958e+00 0
9.684912e+01 -4.214298e+00 0
9.714969e+01 -3.914219e+00 0
9.743582e+01 -3.622475e+00 0
9.771837e+01 -3.335140e+00 0
9.801464e+01 -2.996901e+00 0
9.801464e+01 -2.801373e+00 0
0.000000e+00 0.000000e+00 0
5.995066e+00 -2.707036e+00 0
6.780753e+00 -1.697958e+00 0
7.115763e+00 -1.507394e+00 0
7.634822e+00 -1.451625e+00 0
6.826393e+00 -1.228855e+00 0
9.953044e+00 -1.446176e+00 0
-2.850806e-01 -5.757949e-01 0
6.356552e+01 -6.872691e+00 0
0.000000e+00 0.000000e+00 0
-9.913230e-01 1.300015e+01 0
-7.001414e-01 1.019978e+01 0
-4.198946e-02 7.799779e+00 0
6.656407e-01 5.961740e+00 0
1.390530e+00 4.637175e+00 0
2.168912e+00 3.686846e+00 0
3.047001e+00 3.057290e+00 0
4.091385e+00 2.792631e+00 0
5.391476e+00 3.260979e+00 0
7.178180e+00 3.931636e+00 0
9.349858e+00 3.980581e+00 0
1.176039e+01 3.621841e+00 0
1.432997e+01 3.138748e+00 0
1.702248e+01 2.628145e+00 0
1.981147e+01 2.119114e+00 0
2.268705e+01 1.642847e+00 0
2.564945e+01 1.205207e+00 0
2.870859e+01 8.041831e-01 0
3.188324e+01 4.197318e-01 0
3.525965e+01 -5.709542e-02 0
3.903552e+01 -6.253367e-01 0
4.305822e+01 -1.185666e+00 0
4.722843e+01 -1.740252e+00 0
5.151823e+01 -2.311769e+00 0
5.594324e+01 -2.926632e+00 0
6.052529e+01 -3.624378e+00 0
6.531071e+01 -4.471527e+00 0
7.035375e+01 -5.574139e+00 0
7.568792e+01 -7.031227e+00 0
8.095162e+01 -8.926641e+00 0
8.559176e+01 -1.120806e+01 0
8.937661e+01 -1.359915e+01 0
9.245483e+01 -1.582501e+01 0
9.498663e+01 -1.773362e+01 0
9.709599e+01 -1.925540e+01 0
9.887630e+01 -2.037092e+01 0
1.003964e+02 -2.109352e+01 0
1.017025e+02 -2.145598e+01 0
1.028268e+02 -2.150027e+01 0
1.037939e+02 -2.127188e+01 0
1.046236e+02 -2.081635e+01 0
1.053331e+02 -2.017679e+01 0
1.059398e+02 -1.939318e+01 0
1.064622e+02 -1.850369e+01 0
1.069144e+02 -1.754418e+01 0
1.073062e+02 -1.654565e+01 0
1.076449e+02 -1.553308e+01 0
1.079377e+02 -1.452591e+01 0
1.081922e+02 -1.353981e+01 0
1.084144e+02 -1.258762e+01 0
1.086082e+02 -1.167917e+01 0
1.087762e+02 -1.082110e+01 0
1.089204e+02 -1.001719e+01 0
1.090425e+02 -9.268863e+00 0
1.091439e+02 -8.575802e+00 0
1.092263e+02 -7.936416e+00 0
1.092912e+02 -7.348248e+00 0
1.093403e+02 -6.808259e+00 0
1.093753e+02 -6.313032e+00 0
1.093980e+02 -5.858912e+00 0
1.094100e+02 -5.442099e+00 0
1.094137e+02 -5.058708e+00 0
1.094115e+02 -4.704813e+00 0
1.094067e+02 -4.376507e+00 0
1.094038e+02 -4.070038e+00 0
1.094091e+02 -3.781924e+00 0
1.094314e+02 -3.512745e+00 0
1.094834e+02 -3.204928e+00 0
1.094834e+02 -3.026404e+00 0
0.000000e+00 0.000000e+00 0
-9.889664e+01 5.722770e+01 0
-9.851072e+01 3.060358e+01 0
-9.835009e+01 3.253468e+01 0
-9.830907e+01 3.126321e+01 0
-9.844799e+01 2.753083e+01 0
-9.787216e+01 2.067830e+01 0
-1.023803e+02 9.971279e+00 0
-7.710977e+01 -6.426845e+00 0
0.000000e+00 0.000000e+00 0
8.089479e+00 1.367593e+01 0
1.496145e+01 9.354039e+00 0
2.097373e+01 6.714296e+00 0
2.628479e+01 4.917154e+00 0
3.111314e+01 3.562023e+00 0
3.560902e+01 2.495223e+00 0
3.989011e+01 1.633080e+00 0
4.407616e+01 9.156000e-01 0
4.834252e+01 1.537553e-01 0
5.313722e+01 -6.918890e-01 0
5.815525e+01 -1.460026e+00 0
6.311967e+01 -2.123361e+00 0
6.792688e+01 -2.705030e+00 0
7.255946e+01 -3.219225e+00 0
7.700389e+01 -3.675917e+00 0
8.127158e+01 -4.087552e+00 0
8.538077e+01 -4.464103e+00 0
8.935269e+01 -4.817704e+00 0
9.320966e+01 -5.163834e+00 0
9.696176e+01 -5.506144e+00 0
1.005396e+02 -5.855239e+00 0
1.039625e+02 -6.233520e+00 0
1.072615e+02 -6.655924e+00 0
1.104657e+02 -7.140669e+00 0
1.135987e+02 -7.710837e+00 0
1.166807e+02 -8.397079e+00 0
1.197169e+02 -9.239402e+00 0
1.226857e+02 -1.028335e+01 0
1.255116e+02 -1.156236e+01 0
1.280867e+02 -1.307804e+01 0
1.302420e+02 -1.476591e+01 0
1.318686e+02 -1.648790e+01 0
1.329707e+02 -1.809395e+01 0
1.336050e+02 -1.947180e+01 0
1.338451e+02 -2.055428e+01 0
1.337653e+02 -2.131246e+01 0
1.334339e+02 -2.174639e+01 0
1.329102e+02 -2.187589e+01 0
1.322439e+02 -2.173269e+01 0
1.314766e+02 -2.135455e+01 0
1.306429e+02 -2.078119e+01 0
1.297716e+02 -2.005160e+01 0
1.288866e+02 -1.920261e+01 0
1.280076e+02 -1.826844e+01 0
1.271493e+02 -1.728005e+01 0
1.263218e+02 -1.626420e+01 0
1.255315e+02 -1.524302e+01 0
1.247824e+02 -1.423421e+01 0
1.240770e+02 -1.325179e+01 0
1.234158e+02 -1.230666e+01 0
1.227979e+02 -1.140688e+01 0
1.222212e+02 -1.055786e+01 0
1.216829e+02 -9.762686e+00 0
1.211798e+02 -9.022475e+00 0
1.207089e+02 -8.336833e+00 0
1.202672e+02 -7.704237e+00 0
1.198521e+02 -7.122363e+00 0
1.194611e+02 -6.588351e+00 0
1.190923e+02 -6.099011e+00 0
1.187439e+02 -5.650982e+00 0
1.184149e+02 -5.240858e+00 0
1.181045e+02 -4.865308e+00 0
1.178128e+02 -4.521193e+00 0
1.175407e+02 -4.205743e+00 0
1.172900e+02 -3.916818e+00 0
1.170644e+02 -3.653190e+00 0
1.168691e+02 -3.418010e+00 0
1.167108e+02 -3.164337e+00 0
1.167108e+02 -3.020264e+00 0
1.032330e+02 -1.143252e-17 0
3.694822e-13 -1.376137e-17 0
3.694822e-13 -2.289083e-17 0
3.694822e-13 -4.268710e-17 0
3.694822e-13 -7.866402e-17 0
3.694822e-13 -1.428614e-16 0
3.694822e-13 -2.624627e-16 0
3.694822e-13 -5.131810e-16 0
3.694822e-13 -9.722328e-16 0
1.042520e+02 -1.320246e+00 0
1.130548e+02 -3.212910e+00 0
1.193760e+02 -4.156951e+00 0
1.245517e+02 -4.817642e+00 0
1.290360e+02 -5.336447e+00 0
1.330281e+02 -5.752674e+00 0
1.366450e+02 -6.093202e+00 0
1.399657e+02 -6.377511e+00 0
1.430462e+02 -6.625756e+00 0
1.459227e+02 -6.835615e+00 0
1.484864e+02 -7.002535e+00 0
1.507418e+02 -7.142707e+00 0
1.527323e+02 -7.266530e+00 0
1.544936e+02 -7.379871e+00 0
1.560533e+02 -7.486228e+00 0
1.574386e+02 -7.588660e+00 0
1.586716e+02 -7.691372e+00 0
1.597721e+02 -7.799449e+00 0
1.607576e+02 -7.919427e+00 0
1.616423e+02 -8.058924e+00 0
1.624354e+02 -8.224708e+00 0
1.631539e+02 -8.426105e+00 0
1.638048e+02 -8.675804e+00 0
1.643935e+02 -8.986693e+00 0
1.649231e+02 -9.373184e+00 0
1.653924e+02 -9.851902e+00 0
1.657945e+02 -1.044183e+01 0
1.661112e+02 -1.116284e+01 0
1.663085e+02 -1.203102e+01 0
1.663316e+02 -1.304945e+01 0
1.661114e+02 -1.419769e+01 0
1.655732e+02 -1.542217e+01 0
1.646711e+02 -1.663962e+01 0
1.634069e+02 -1.775983e+01 0
1.618181e+02 -1.870797e+01 0
1.599622e+02 -1.943394e+01 0
1.579039e+02 -1.991278e+01 0
1.557076e+02 -2.014073e+01 0
1.534319e+02 -2.012989e+01 0
1.511273e+02 -1.990279e+01 0
1.488361e+02 -1.948797e+01 0
1.465920e+02 -1.891651e+01 0
1.444214e+02 -1.821971e+01 0
1.423436e+02 -1.742755e+01 0
1.403727e+02 -1.656786e+01 0
1.385168e+02 -1.566572e+01 0
1.367801e+02 -1.474293e+01 0
1.351627e+02 -1.381779e+01 0
1.336625e+02 -1.290520e+01 0
1.322752e+02 -1.201701e+01 0
1.309953e+02 -1.116238e+01 0
1.298163e+02 -1.034805e+01 0
1.287309e+02 -9.578603e+00 0
1.277316e+02 -8.856734e+00 0
1.268110e+02 -8.183552e+00 0
1.259619e+02 -7.558902e+00 0
1.251777e+02 -6.981657e+00 0
1.244522e+02 -6.449992e+00 0
1.237799e+02 -5.961602e+00 0
1.231558e+02 -5.513893e+00 0
1.225757e+02 -5.104144e+00 0
1.220358e+02 -4.729647e+00 0
1.215334e+02 -4.387848e+00 0
1.210661e+02 -4.076515e+00 0
1.206327e+02 -3.793948e+00 0
1.202326e+02 -3.539289e+00 0
1.198664e+02 -3.312886e+00 0
1.195357e+02 -3.118824e+00 0
1.192418e+02 -2.929718e+00 0
1.192418e+02 -2.828666e+00 0
2.068541e+02 -1.287188e-02 0
2.068541e+02 -1.549393e-02 0
2.068682e+02 -2.577278e-02 0
2.068937e+02 -4.806141e-02 0
2.069403e+02 -8.856782e-02 0
2.070223e+02 -1.608477e-01 0
2.071623e+02 -2.955068e-01 0
2.073964e+02 -5.777904e-01 0
2.077808e+02 -1.094637e+00 0
2.080463e+02 -1.862935e+00 0
2.077174e+02 -2.718322e+00 0
2.071330e+02 -3.456784e+00 0
2.064449e+02 -4.049673e+00 0
2.056935e+02 -4.527951e+00 0
2.049007e+02 -4.916547e+00 0
2.040782e+02 -5.235237e+00 0
2.032325e+02 -5.499670e+00 0
2.023665e+02 -5.722164e+00 0
2.014761e+02 -5.908166e+00 0
2.005714e+02 -6.061762e+00 0
1.996572e+02 -6.191182e+00 0
1.987343e+02 -6.303901e+00 0
1.978031e+02 -6.405633e+00 0
1.968634e+02 -6.500796e+00 0
1.959162e+02 -6.593375e+00 0
1.949624e+02 -6.687668e+00 0
1.940026e+02 -6.788545e+00 0
1.930371e+02 -6.901658e+00 0
1.920651e+02 -7.033358e+00 0
1.910847e+02 -7.190467e+00 0
1.900943e+02 -7.381086e+00 0
1.890897e+02 -7.614803e+00 0
1.880645e+02 -7.901972e+00 0
1.870100e+02 -8.253720e+00 0
1.859141e+02 -8.681819e+00 0
1.847601e+02 -9.197995e+00 0
1.835250e+02 -9.812143e+00 0
1.821783e+02 -1.052891e+01 0
1.806818e+02 -1.134276e+01 0
1.789953e+02 -1.223297e+01 0
1.770834e+02 -1.316102e+01 0
1.749294e+02 -1.407399e+01 0
1.725414e+02 -1.491485e+01 0
1.699499e+02 -1.563338e+01 0
1.671997e+02 -1.619278e+01 0
1.643425e+02 -1.657171e+01 0
1.614303e+02 -1.676322e+01 0
1.585114e+02 -1.677209e+01 0
1.556279e+02 -1.661168e+01 0
1.528145e+02 -1.630095e+01 0
1.500987e+02 -1.586189e+01 0
1.475013e+02 -1.531766e+01 0
1.450368e+02 -1.469120e+01 0
1.427142e+02 -1.400428e+01 0
1.405381e+02 -1.327689e+01 0
1.385092e+02 -1.252674e+01 0
1.366252e+02 -1.176909e+01 0
1.348814e+02 -1.101667e+01 0