<?xml version="1.0"?>
<VTKFile type="StructuredGrid">
<StructuredGrid WholeExtent="0 78 0 14 0 0 ">
<Piece Extent="0 78 0 14 0 0 ">
<Points>
<DataArray type="Float64" format="ascii" NumberOfComponents="3">
0.000000e+00 0.000000e+00 0.000000e+00
6.410256e-02 0.000000e+00 0.000000e+00
1.282051e-01 0.000000e+00 0.000000e+00
1.923077e-01 0.000000e+00 0.000000e+00
2.564103e-01 0.000000e+00 0.000000e+00
3.205128e-01 0.000000e+00 0.000000e+00
3.846154e-01 0.000000e+00 0.000000e+00
4.487179e-01 0.000000e+00 0.000000e+00
5.128205e-01 0.000000e+00 0.000000e+00
5.769231e-01 0.000000e+00 0.000000e+00
6.410256e-01 0.000000e+00 0.000000e+00
7.051282e-01 0.000000e+00 0.000000e+00
7.692308e-01 0.000000e+00 0.000000e+00
8.333333e-01 0.000000e+00 0.000000e+00
8.974359e-01 0.000000e+00 0.000000e+00
9.615385e-01 0.000000e+00 0.000000e+00
1.025641e+00 0.000000e+00 0.000000e+00
1.089744e+00 0.000000e+00 0.000000e+00
1.153846e+00 0.000000e+00 0.000000e+00
1.217949e+00 0.000000e+00 0.000000e+00
1.282051e+00 0.000000e+00 0.000000e+00
1.346154e+00 0.000000e+00 0.000000e+00
1.410256e+00 0.000000e+00 0.000000e+00
1.474359e+00 0.000000e+00 0.000000e+00
1.538462e+00 0.000000e+00 0.000000e+00
1.602564e+00 0.000000e+00 0.000000e+00
1.666667e+00 0.000000e+00 0.000000e+00
1.730769e+00 0.000000e+00 0.000000e+00
1.794872e+00 0.000000e+00 0.000000e+00
1.858974e+00 0.000000e+00 0.000000e+00
1.923077e+00 0.000000e+00 0.000000e+00
1.987179e+00 0.000000e+00 0.000000e+00
2.051282e+00 0.000000e+00 0.000000e+00
2.115385e+00 0.000000e+00 0.000000e+00
2.179487e+00 0.000000e+00 0.000000e+00
2.243590e+00 0.000000e+00 0.000000e+00
2.307692e+00 0.000000e+00 0.000000e+00
2.371795e+00 0.000000e+00 0.000000e+00
2.435897e+00 0.000000e+00 0.000000e+00
2.500000e+00 0.000000e+00 0.000000e+00
2.564103e+00 0.000000e+00 0.000000e+00
2.628205e+00 0.000000e+00 0.000000e+00
2.692308e+00 0.000000e+00 0.000000e+00
2.756410e+00 0.000000e+00 0.000000e+00
2.820513e+00 0.000000e+00 0.000000e+00
2.884615e+00 0.000000e+00 0.000000e+00
2.948718e+00 0.000000e+00 0.000000e+00
3.012821e+00 0.000000e+00 0.000000e+00
3.076923e+00 0.000000e+00 0.000000e+00
3.141026e+00 0.000000e+00 0.000000e+00
3.205128e+00 0.000000e+00 0.000000e+00
3.269231e+00 0.000000e+00 0.000000e+00
3.333333e+00 0.000000e+00 0.000000e+00
3.397436e+00 0.000000e+00 0.000000e+00
3.461538e+00 0.000000e+00 0.000000e+00
3.525641e+00 0.000000e+00 0.000000e+00
3.589744e+00 0.000000e+00 0.000000e+00
3.653846e+00 0.000000e+00 0.000000e+00
3.717949e+00 0.000000e+00 0.000000e+00
3.782051e+00 0.000000e+00 0.000000e+00
3.846154e+00 0.000000e+00 0.000000e+00
3.910256e+00 0.000000e+00 0.000000e+00
3.974359e+00 0.000000e+00 0.000000e+00
4.038462e+00 0.000000e+00 0.000000e+00
4.102564e+00 0.000000e+00 0.000000e+00
4.166667e+00 0.000000e+00 0.000000e+00
4.230769e+00 0.000000e+00 0.000000e+00
4.294872e+00 0.000000e+00 0.000000e+00
4.358974e+00 0.000000e+00 0.000000e+00
4.423077e+00 0.000000e+00 0.000000e+00
4.487179e+00 0.000000e+00 0.000000e+00
4.551282e+00 0.000000e+00 0.000000e+00
4.615385e+00 0.000000e+00 0.000000e+00
4.679487e+00 0.000000e+00 0.000000e+00
4.743590e+00 0.000000e+00 0.000000e+00
4.807692e+00 0.000000e+00 0.000000e+00
4.871795e+00 0.000000e+00 0.000000e+00
4.935897e+00 0.000000e+00 0.000000e+00
5.000000e+00 0.000000e+00 0.000000e+00
0.000000e+00 7.142857e-02 0.000000e+00
6.410256e-02 7.142857e-02 0.000000e+00
1.282051e-01 7.142857e-02 0.000000e+00
1.923077e-01 7.142857e-02 0.000000e+00
2.564103e-01 7.142857e-02 0.000000e+00
3.205128e-01 7.142857e-02 0.000000e+00
3.846154e-01 7.142857e-02 0.000000e+00
4.487179e-01 7.142857e-02 0.000000e+00
5.128205e-01 7.142857e-02 0.000000e+00
5.769231e-01 7.142857e-02 0.000000e+00
6.410256e-01 7.142857e-02 0.000000e+00
7.051282e-01 7.142857e-02 0.000000e+00
7.692308e-01 7.142857e-02 0.000000e+00
8.333333e-01 7.142857e-02 0.000000e+00
8.974359e-01 7.142857e-02 0.000000e+00
9.615385e-01 7.142857e-02 0.000000e+00
1.025641e+00 7.142857e-02 0.000000e+00
1.089744e+00 7.142857e-02 0.000000e+00
1.153846e+00 7.142857e-02 0.000000e+00
1.217949e+00 7.142857e-02 0.000000e+00
1.282051e+00 7.142857e-02 0.000000e+00
1.346154e+00 7.142857e-02 0.000000e+00
1.410256e+00 7.142857e-02 0.000000e+00
1.474359e+00 7.142857e-02 0.000000e+00
1.538462e+00 7.142857e-02 0.000000e+00
1.602564e+00 7.142857e-02 0.000000e+00
1.666667e+00 7.142857e-02 0.000000e+00
1.730769e+00 7.142857e-02 0.000000e+00
1.794872e+00 7.142857e-02 0.000000e+00
1.858974e+00 7.142857e-02 0.000000e+00
1.923077e+00 7.142857e-02 0.000000e+00
1.987179e+00 7.142857e-02 0.000000e+00
2.051282e+00 7.142857e-02 0.000000e+00
2.115385e+00 7.142857e-02 0.000000e+00
2.179487e+00 7.142857e-02 0.000000e+00
2.243590e+00 7.142857e-02 0.000000e+00
2.307692e+00 7.142857e-02 0.000000e+00
2.371795e+00 7.142857e-02 0.000000e+00
2.435897e+00 7.142857e-02 0.000000e+00
2.500000e+00 7.142857e-02 0.000000e+00
2.564103e+00 7.142857e-02 0.000000e+00
2.628205e+00 7.142857e-02 0.000000e+00
2.692308e+00 7.142857e-02 0.000000e+00
2.756410e+00 7.142857e-02 0.000000e+00
2.820513e+00 7.142857e-02 0.000000e+00
2.884615e+00 7.142857e-02 0.000000e+00
2.948718e+00 7.142857e-02 0.000000e+00
3.012821e+00 7.142857e-02 0.000000e+00
3.076923e+00 7.142857e-02 0.000000e+00
3.141026e+00 7.142857e-02 0.000000e+00
3.205128e+00 7.142857e-02 0.000000e+00
3.269231e+00 7.142857e-02 0.000000e+00
3.333333e+00 7.142857e-02 0.000000e+00
3.397436e+00 7.142857e-02 0.000000e+00
3.461538e+00 7.142857e-02 0.000000e+00
3.525641e+00 7.142857e-02 0.000000e+00
3.589744e+00 7.142857e-02 0.000000e+00
3.653846e+00 7.142857e-02 0.000000e+00
3.717949e+00 7.142857e-02 0.000000e+00
3.782051e+00 7.142857e-02 0.000000e+00
3.846154e+00 7.142857e-02 0.000000e+00
3.910256e+00 7.142857e-02 0.000000e+00
3.974359e+00 7.142857e-02 0.000000e+00
4.038462e+00 7.142857e-02 0.000000e+00
4.102564e+00 7.142857e-02 0.000000e+00
4.166667e+00 7.142857e-02 0.000000e+00
4.230769e+00 7.142857e-02 0.000000e+00
4.294872e+00 7.142857e-02 0.000000e+00
4.358974e+00 7.142857e-02 0.000000e+00
4.423077e+00 7.142857e-02 0.000000e+00
4.487179e+00 7.142857e-02 0.000000e+00
4.551282e+00 7.142857e-02 0.000000e+00
4.615385e+00 7.142857e-02 0.000000e+00
4.679487e+00 7.142857e-02 0.000000e+00
4.743590e+00 7.142857e-02 0.000000e+00
4.807692e+00 7.142857e-02 0.000000e+00
4.871795e+00 7.142857e-02 0.000000e+00
4.935897e+00 7.142857e-02 0.000000e+00
5.000000e+00 7.142857e-02 0.000000e+00
0.000000e+00 1.428571e-01 0.000000e+00
6.410256e-02 1.428571e-01 0.000000e+00
1.282051e-01 1.428571e-01 0.000000e+00
1.923077e-01 1.428571e-01 0.000000e+00
2.564103e-01 1.428571e-01 0.000000e+00
3.205128e-01 1.428571e-01 0.000000e+00
3.846154e-01 1.428571e-01 0.000000e+00
4.487179e-01 1.428571e-01 0.000000e+00
5.128205e-01 1.428571e-01 0.000000e+00
5.769231e-01 1.428571e-01 0.000000e+00
6.410256e-01 1.428571e-01 0.000000e+00
7.051282e-01 1.428571e-01 0.000000e+00
7.692308e-01 1.428571e-01 0.000000e+00
8.333333e-01 1.428571e-01 0.000000e+00
8.974359e-01 1.428571e-01 0.000000e+00
9.615385e-01 1.428571e-01 0.000000e+00
1.025641e+00 1.428571e-01 0.000000e+00
1.089744e+00 1.428571e-01 0.000000e+00
1.153846e+00 1.428571e-01 0.000000e+00
1.217949e+00 1.428571e-01 0.000000e+00
1.282051e+00 1.428571e-01 0.000000e+00
1.346154e+00 1.428571e-01 0.000000e+00
1.410256e+00 1.428571e-01 0.000000e+00
1.474359e+00 1.428571e-01 0.000000e+00
1.538462e+00 1.428571e-01 0.000000e+00
1.602564e+00 1.428571e-01 0.000000e+00
1.666667e+00 1.428571e-01 0.000000e+00
1.730769e+00 1.428571e-01 0.000000e+00
1.794872e+00 1.428571e-01 0.000000e+00
1.858974e+00 1.428571e-01 0.000000e+00
1.923077e+00 1.428571e-01 0.000000e+00
1.987179e+00 1.428571e-01 0.000000e+00
2.051282e+00 1.428571e-01 0.000000e+00
2.115385e+00 1.428571e-01 0.000000e+00
2.179487e+00 1.428571e-01 0.000000e+00
2.243590e+00 1.428571e-01 0.000000e+00
2.307692e+00 1.428571e-01 0.000000e+00
2.371795e+00 1.428571e-01 0.000000e+00
2.435897e+00 1.428571e-01 0.000000e+00
2.500000e+00 1.428571e-01 0.000000e+00
2.564103e+00 1.428571e-01 0.000000e+00
2.628205e+00 1.428571e-01 0.000000e+00
2.692308e+00 1.428571e-01 0.000000e+00
2.756410e+00 1.428571e-01 0.000000e+00
2.820513e+00 1.428571e-01 0.000000e+00
2.884615e+00 1.428571e-01 0.000000e+00
2.948718e+00 1.428571e-01 0.000000e+00
3.012821e+00 1.428571e-01 0.000000e+00
3.076923e+00 1.428571e-01 0.000000e+00
3.141026e+00 1.428571e-01 0.000000e+00
3.205128e+00 1.428571e-01 0.000000e+00
3.269231e+00 1.428571e-01 0.000000e+00
3.333333e+00 1.428571e-01 0.000000e+00
3.397436e+00 1.428571e-01 0.000000e+00
3.461538e+00 1.428571e-01 0.000000e+00
3.525641e+00 1.428571e-01 0.000000e+00
3.589744e+00 1.428571e-01 0.000000e+00
3.653846e+00 1.428571e-01 0.000000e+00
3.717949e+00 1.428571e-01 0.000000e+00
3.782051e+00 1.428571e-01 0.000000e+00
3.846154e+00 1.428571e-01 0.000000e+00
3.910256e+00 1.428571e-01 0.000000e+00
3.974359e+00 1.428571e-01 0.000000e+00
4.038462e+00 1.428571e-01 0.000000e+00
4.102564e+00 1.428571e-01 0.000000e+00
4.166667e+00 1.428571e-01 0.000000e+00
4.230769e+00 1.428571e-01 0.000000e+00
4.294872e+00 1.428571e-01 0.000000e+00
4.358974e+00 1.428571e-01 0.000000e+00
4.423077e+00 1.428571e-01 0.000000e+00
4.487179e+00 1.428571e-01 0.000000e+00
4.551282e+00 1.428571e-01 0.000000e+00
4.615385e+00 1.428571e-01 0.000000e+00
4.679487e+00 1.428571e-01 0.000000e+00
4.743590e+00 1.428571e-01 0.000000e+00
4.807692e+00 1.428571e-01 0.000000e+00
4.871795e+00 1.428571e-01 0.000000e+00
4.935897e+00 1.428571e-01 0.000000e+00
5.000000e+00 1.428571e-01 0.000000e+00
0.000000e+00 2.142857e-01 0.000000e+00
6.410256e-02 2.142857e-01 0.000000e+00
1.282051e-01 2.142857e-01 0.000000e+00
1.923077e-01 2.142857e-01 0.000000e+00
2.564103e-01 2.142857e-01 0.000000e+00
3.205128e-01 2.142857e-01 0.000000e+00
3.846154e-01 2.142857e-01 0.000000e+00
4.487179e-01 2.142857e-01 0.000000e+00
5.128205e-01 2.142857e-01 0.000000e+00
5.769231e-01 2.142857e-01 0.000000e+00
6.410256e-01 2.142857e-01 0.000000e+00
7.051282e-01 2.142857e-01 0.000000e+00
7.692308e-01 2.142857e-01 0.000000e+00
8.333333e-01 2.142857e-01 0.000000e+00
[...]
<PointData>
<DataArray Name="Velocity" type="Float64" format="ascii" NumberOfComponents="3">
0.000000e+00 0.000000e+00 0
0.000000e+00 0.000000e+00 0
0.000000e+00 0.000000e+00 0
0.000000e+00 0.000000e+00 0
0.000000e+00 0.000000e+00 0
0.000000e+00 0.000000e+00 0
0.000000e+00 0.000000e+00 0
0.000000e+00 0.000000e+00 0
0.000000e+00 0.000000e+00 0
0.000000e+00 0.000000e+00 0
0.000000e+00 0.000000e+00 0
0.000000e+00 0.000000e+00 0
0.000000e+00 0.000000e+00 0
0.000000e+00 0.000000e+00 0
0.000000e+00 0.000000e+00 0
0.000000e+00 0.000000e+00 0
0.000000e+00 0.000000e+00 0
0.000000e+00 0.000000e+00 0
0.000000e+00 0.000000e+00 0
0.000000e+00 0.000000e+00 0
0.000000e+00 0.000000e+00 0
0.000000e+00 0.000000e+00 0
0.000000e+00 0.000000e+00 0
0.000000e+00 0.000000e+00 0
0.000000e+00 0.000000e+00 0
0.000000e+00 0.000000e+00 0
0.000000e+00 0.000000e+00 0
0.000000e+00 0.000000e+00 0
0.000000e+00 0.000000e+00 0
0.000000e+00 0.000000e+00 0
0.000000e+00 0.000000e+00 0
0.000000e+00 0.000000e+00 0
0.000000e+00 0.000000e+00 0
0.000000e+00 0.000000e+00 0
0.000000e+00 0.000000e+00 0
-1.838785e-19 0.000000e+00 0
0.000000e+00 0.000000e+00 0
0.000000e+00 0.000000e+00 0
0.000000e+00 0.000000e+00 0
3.216208e-19 0.000000e+00 0
0.000000e+00 0.000000e+00 0
0.000000e+00 0.000000e+00 0
0.000000e+00 0.000000e+00 0
-4.916800e-19 0.000000e+00 0
0.000000e+00 0.000000e+00 0
0.000000e+00 0.000000e+00 0
0.000000e+00 0.000000e+00 0
8.266732e-19 0.000000e+00 0
0.000000e+00 0.000000e+00 0
0.000000e+00 0.000000e+00 0
0.000000e+00 0.000000e+00 0
6.650698e-19 0.000000e+00 0
0.000000e+00 0.000000e+00 0
0.000000e+00 0.000000e+00 0
0.000000e+00 0.000000e+00 0
6.308497e-19 0.000000e+00 0
0.000000e+00 0.000000e+00 0
0.000000e+00 0.000000e+00 0
0.000000e+00 0.000000e+00 0
6.445516e-19 0.000000e+00 0
0.000000e+00 0.000000e+00 0
0.000000e+00 0.000000e+00 0
0.000000e+00 0.000000e+00 0
6.665861e-19 0.000000e+00 0
0.000000e+00 0.000000e+00 0
0.000000e+00 0.000000e+00 0
0.000000e+00 0.000000e+00 0
0.000000e+00 0.000000e+00 0
0.000000e+00 0.000000e+00 0
0.000000e+00 0.000000e+00 0
-3.550797e-19 0.000000e+00 0
0.000000e+00 0.000000e+00 0
0.000000e+00 0.000000e+00 0
0.000000e+00 0.000000e+00 0
0.000000e+00 0.000000e+00 0
0.000000e+00 0.000000e+00 0
0.000000e+00 0.000000e+00 0
0.000000e+00 0.000000e+00 0
-3.433801e-19 0.000000e+00 0
0.000000e+00 0.000000e+00 0
-5.596895e-02 -9.800364e-02 0
-8.531130e-02 -1.418625e-01 0
-9.331758e-02 -1.369973e-01 0
-9.107886e-02 -1.084382e-01 0
-8.531813e-02 -7.389758e-02 0
-8.132366e-02 -4.338235e-02 0
-8.473185e-02 -2.098372e-02 0
-1.017488e-01 -6.505678e-03 0
0.000000e+00 0.000000e+00 0
-1.261129e-03 1.291978e-03 0
-2.820558e-03 1.237309e-03 0
-3.344428e-03 3.553511e-04 0
-2.351319e-03 -7.659503e-04 0
7.413592e-05 -1.761986e-03 0
3.563416e-03 -2.466677e-03 0
7.683842e-03 -2.849176e-03 0
1.204653e-02 -2.955685e-03 0
1.634950e-02 -2.857009e-03 0
2.038322e-02 -2.622648e-03 0
2.401859e-02 -2.311053e-03 0
2.718956e-02 -1.967226e-03 0
2.987667e-02 -1.623326e-03 0
3.209325e-02 -1.300349e-03 0
3.387390e-02 -1.010364e-03 0
3.526527e-02 -7.589685e-04 0
3.631919e-02 -5.474170e-04 0
3.708817e-02 -3.741795e-04 0
3.762238e-02 -2.360376e-04 0
3.796784e-02 -1.289163e-04 0
3.816540e-02 -4.845942e-05 0
3.825035e-02 9.928002e-06 0
3.825247e-02 5.110247e-05 0
3.819552e-02 7.866575e-05 0
3.809838e-02 9.516684e-05 0
3.797605e-02 1.032542e-04 0
3.784015e-02 1.051795e-04 0
3.769939e-02 1.027379e-04 0
3.756014e-02 9.732066e-05 0
3.742688e-02 8.998984e-05 0
3.730260e-02 8.155092e-05 0
3.718916e-02 7.261167e-05 0
3.708751e-02 6.362281e-05 0
3.699792e-02 5.490789e-05 0
3.692020e-02 4.668971e-05 0
3.685377e-02 3.911290e-05 0
3.679785e-02 3.226102e-05 0
3.675149e-02 2.617019e-05 0
3.671368e-02 2.084094e-05 0
3.668339e-02 1.624817e-05 0
3.665962e-02 1.234866e-05 0
3.664141e-02 9.087040e-06 0
3.662787e-02 6.400758e-06 0
3.661820e-02 4.224147e-06 0
3.661168e-02 2.491164e-06 0
3.660768e-02 1.137320e-06 0
3.660566e-02 1.032802e-07 0
3.660516e-02 -6.502010e-07 0
3.660579e-02 -1.166662e-06 0
3.660721e-02 -1.500563e-06 0
3.660915e-02 -1.691011e-06 0
3.661140e-02 -1.768666e-06 0
3.661379e-02 -1.759894e-06 0
3.661620e-02 -1.687913e-06 0
3.661852e-02 -1.572656e-06 0
3.662069e-02 -1.430332e-06 0
3.662269e-02 -1.273600e-06 0
3.662447e-02 -1.112276e-06 0
3.662603e-02 -9.537101e-07 0
3.662738e-02 -8.030167e-07 0
3.662852e-02 -6.636023e-07 0
3.662946e-02 -5.377542e-07 0
3.663023e-02 -4.272847e-07 0
3.663085e-02 -3.345037e-07 0
3.663134e-02 -2.636940e-07 0
3.663172e-02 -2.231547e-07 0
3.663204e-02 -2.263164e-07 0
3.663233e-02 -2.820018e-07 0
3.663233e-02 -3.231838e-07 0
0.000000e+00 0.000000e+00 0
-7.296014e-02 -1.312936e-01 0
-1.065176e-01 -1.835608e-01 0
-1.189316e-01 -1.806698e-01 0
-1.229362e-01 -1.514737e-01 0
-1.223885e-01 -1.108700e-01 0
-1.201012e-01 -6.944807e-02 0
-1.199595e-01 -3.526333e-02 0
-1.244814e-01 -1.178010e-02 0
0.000000e+00 0.000000e+00 0
-1.547781e-03 3.141966e-03 0
-2.665103e-03 2.325619e-03 0
-1.765907e-03 -5.204700e-04 0
1.426276e-03 -3.810703e-03 0
6.503398e-03 -6.593098e-03 0
1.283245e-02 -8.479477e-03 0
1.980246e-02 -9.450713e-03 0
2.691303e-02 -9.654584e-03 0
3.379420e-02 -9.289594e-03 0
4.019548e-02 -8.546276e-03 0
4.596400e-02 -7.584324e-03 0
5.102266e-02 -6.527130e-03 0
5.535129e-02 -5.463778e-03 0
5.897048e-02 -4.454084e-03 0
6.192787e-02 -3.534664e-03 0
6.428726e-02 -2.724768e-03 0
6.612056e-02 -2.031183e-03 0
6.750201e-02 -1.452115e-03 0
6.850405e-02 -9.802497e-04 0
6.919436e-02 -6.051222e-04 0
6.963421e-02 -3.148215e-04 0
6.987762e-02 -9.704525e-05 0
6.997143e-02 6.106627e-05 0
6.995578e-02 1.716858e-04 0
6.986190e-02 2.445394e-04 0
6.971504e-02 2.877113e-04 0
6.953522e-02 3.082482e-04 0
6.933794e-02 3.119893e-04 0
6.913499e-02 3.036452e-04 0
6.893504e-02 2.869580e-04 0
6.874424e-02 2.648691e-04 0
6.856673e-02 2.396618e-04 0
6.840502e-02 2.130775e-04 0
6.826041e-02 1.864146e-04 0
6.813323e-02 1.606126e-04 0
6.802312e-02 1.363231e-04 0
6.792923e-02 1.139666e-04 0
6.785039e-02 9.378252e-05 0
6.778521e-02 7.587117e-05 0
6.773222e-02 6.022843e-05 0
6.768994e-02 4.677372e-05 0
6.765690e-02 3.537277e-05 0
6.763174e-02 2.585687e-05 0
6.761316e-02 1.803797e-05 0
6.760004e-02 1.171975e-05 0
6.759132e-02 6.706157e-06 0
6.758613e-02 2.809282e-06 0
6.758368e-02 -1.433425e-07 0
6.758333e-02 -2.285054e-06 0
6.758453e-02 -3.747895e-06 0
6.758680e-02 -4.672776e-06 0
6.758977e-02 -5.171940e-06 0
6.759312e-02 -5.341824e-06 0
6.759664e-02 -5.265708e-06 0
6.760014e-02 -5.013942e-06 0
6.760349e-02 -4.644300e-06 0
6.760662e-02 -4.203134e-06 0
6.760947e-02 -3.726709e-06 0
6.761201e-02 -3.242414e-06 0
6.761423e-02 -2.770207e-06 0
6.761614e-02 -2.324211e-06 0
6.761775e-02 -1.914244e-06 0
6.761908e-02 -1.547529e-06 0
6.762016e-02 -1.230686e-06 0
6.762102e-02 -9.720573e-07 0
6.762170e-02 -7.837947e-07 0
6.762222e-02 -6.807167e-07 0
6.762263e-02 -6.666732e-07 0
6.762263e-02 -6.809781e-07 0
0.000000e+00 0.000000e+00 0
-7.230706e-02 -1.443915e-01 0
-1.036202e-01 -2.001317e-01 0
-1.172038e-01 -2.013490e-01 0
-1.254786e-01 -1.774079e-01 0
-1.301036e-01 -1.388270e-01 0
-1.307064e-01 -9.314172e-02 0
-1.286832e-01 -4.993956e-02 0
-1.269259e-01 -1.737044e-02 0
0.000000e+00 0.000000e+00 0
-1.129611e-03 4.265436e-03 0
-1.719011e-04 1.483880e-03 0
3.845335e-03 -4.205616e-03 0
1.032886e-02 -9.984165e-03 0
1.834941e-02 -1.447245e-02 0
2.710957e-02 -1.728320e-02 0
3.601732e-02 -1.853693e-02 0
4.466291e-02 -1.854678e-02 0
5.277619e-02 -1.765871e-02 0
6.018955e-02 -1.618356e-02 0
6.681083e-02 -1.437485e-02 0
7.260437e-02 -1.242664e-02 0
7.757671e-02 -1.047936e-02 0
8.176455e-02 -8.628648e-03 0
8.522459e-02 -6.934691e-03 0
8.802571e-02 -5.430585e-03 0
9.024314e-02 -4.129413e-03 0
9.195397e-02 -3.030032e-03 0
9.323354e-02 -2.121787e-03 0
9.415292e-02 -1.388212e-03 0
9.477724e-02 -8.097762e-04 0
9.516481e-02 -3.658152e-04 0
9.536686e-02 -3.597734e-05 0
9.542824e-02 2.007290e-04 0
9.538655e-02 3.634224e-04 0
9.527187e-02 4.672700e-04 0
9.510832e-02 5.253788e-04 0
9.491504e-02 5.487101e-04 0
9.470693e-02 5.462764e-04 0
9.449531e-02 5.253981e-04 0
9.428854e-02 4.919528e-04 0
9.409251e-02 4.505936e-04 0
9.391112e-02 4.049417e-04 0
9.374669e-02 3.577586e-04 0
9.360031e-02 3.110955e-04 0
9.347215e-02 2.664211e-04 0
9.336170e-02 2.247323e-04 0
9.326796e-02 1.866508e-04 0
9.318964e-02 1.525056e-04 0
9.312525e-02 1.224012e-04 0
9.307322e-02 9.627406e-05 0
9.303200e-02 7.394021e-05 0
9.300007e-02 5.513515e-05 0
9.297601e-02 3.954436e-05 0
9.295850e-02 2.682661e-05 0
9.294636e-02 1.663253e-05 0
9.293856e-02 8.619562e-06 0
9.293418e-02 2.463852e-06 0
9.293244e-02 -2.115710e-06 0
9.293271e-02 -5.366849e-06 0
9.293443e-02 -7.526719e-06 0
9.293714e-02 -8.812314e-06 0
9.294045e-02 -9.415281e-06 0
9.294409e-02 -9.501126e-06 0
9.294783e-02 -9.209548e-06 0
9.295150e-02 -8.655862e-06 0
9.295499e-02 -7.933244e-06 0
9.295822e-02 -7.115158e-06 0
9.296114e-02 -6.257931e-06 0
9.296374e-02 -5.403541e-06 0
9.296600e-02 -4.582330e-06 0
9.296793e-02 -3.815649e-06 0
9.296955e-02 -3.118573e-06 0
9.297088e-02 -2.502700e-06 0
9.297195e-02 -1.979130e-06 0
9.297279e-02 -1.561172e-06 0
9.297342e-02 -1.265076e-06 0
9.297387e-02 -1.104885e-06 0
9.297387e-02 -1.060087e-06 0
0.000000e+00 0.000000e+00 0
-6.838611e-02 -1.561064e-01 0
-9.446409e-02 -2.111438e-01 0
-1.058293e-01 -2.142730e-01 0
-1.147455e-01 -1.967458e-01 0
-1.223456e-01 -1.649561e-01 0
-1.266051e-01 -1.205288e-01 0
-1.261302e-01 -6.975984e-02 0
-1.226726e-01 -2.468616e-02 0
0.000000e+00 0.000000e+00 0
4.272246e-04 3.337608e-03 0
5.750792e-03 -3.218868e-03 0
1.462684e-02 -1.222641e-02 0
2.512059e-02 -1.997547e-02 0
3.596157e-02 -2.529021e-02 0
4.647121e-02 -2.816399e-02 0
5.631532e-02 -2.900995e-02 0
6.533884e-02 -2.833056e-02 0
7.347797e-02 -2.659195e-02 0
8.071752e-02 -2.418458e-02 0
8.707168e-02 -2.141724e-02 0
9.257539e-02 -1.852330e-02 0
9.727870e-02 -1.567122e-02 0
1.012418e-01 -1.297622e-02 0
1.045312e-01 -1.051126e-02 0
1.072162e-01 -8.316705e-03 0
1.093674e-01 -6.408360e-03 0
1.110541e-01 -4.784309e-03 0
1.123427e-01 -3.430499e-03 0
1.132953e-01 -2.325189e-03 0
1.139688e-01 -1.442327e-03 0
1.144146e-01 -7.540491e-04 0
1.146783e-01 -2.324534e-04 0
1.147993e-01 1.497588e-04 0
1.148134e-01 4.187714e-04 0
1.147493e-01 5.977247e-04 0
1.146306e-01 7.058571e-04 0
1.144763e-01 7.592639e-04 0
1.143016e-01 7.713446e-04 0
1.141180e-01 7.531527e-04 0
1.139345e-01 7.136975e-04 0
1.137574e-01 6.602154e-04 0
1.135914e-01 5.984221e-04 0
1.134390e-01 5.327433e-04 0
1.133021e-01 4.665219e-04 0
1.131811e-01 4.022015e-04 0
1.130760e-01 3.414899e-04 0
1.129861e-01 2.855042e-04 0
1.129104e-01 2.348941e-04 0
1.128477e-01 1.899459e-04 0
1.127967e-01 1.506710e-04 0
1.127558e-01 1.168813e-04 0
1.127238e-01 8.825085e-05 0
1.126994e-01 6.436316e-05 0
1.126814e-01 4.474937e-05 0
1.126686e-01 2.891893e-05 0
1.126600e-01 1.638327e-05 0
1.126549e-01 6.672951e-06 0
1.126523e-01 -6.515925e-07 0
1.126518e-01 -5.965457e-06 0
1.126528e-01 -9.601202e-06 0
1.126549e-01 -1.188076e-05 0
1.126576e-01 -1.309172e-05 0
1.126607e-01 -1.348406e-05 0
1.126640e-01 -1.326975e-05 0
1.126673e-01 -1.262461e-05 0
1.126705e-01 -1.169156e-05 0
1.126735e-01 -1.058418e-05 0
1.126763e-01 -9.390530e-06 0
1.126788e-01 -8.177109e-06 0
1.126809e-01 -6.992642e-06 0
1.126828e-01 -5.871715e-06 0
1.126844e-01 -4.838272e-06 0
1.126858e-01 -3.909122e-06 0
1.126868e-01 -3.097683e-06 0
1.126877e-01 -2.418210e-06 0
1.126883e-01 -1.890944e-06 0
1.126887e-01 -1.549292e-06 0
1.126887e-01 -1.430138e-06 0
0.000000e+00 0.000000e+00 0
-6.764385e-02 -1.749562e-01 0
-8.591814e-02 -2.211554e-01 0
-9.293537e-02 -2.220499e-01 0
-9.945270e-02 -2.095007e-01 0
-1.067807e-01 -1.870765e-01 0
-1.134463e-01 -1.509003e-01 0
-1.167429e-01 -9.789875e-02 0
-1.147145e-01 -3.530730e-02 0
0.000000e+00 0.000000e+00 0
5.860671e-03 -2.140524e-03 0
1.894774e-02 -1.434282e-02 0
3.375307e-02 -2.579399e-02 0
4.777588e-02 -3.375747e-02 0
6.025822e-02 -3.826003e-02 0
7.112378e-02 -3.996130e-02 0
8.050989e-02 -3.956217e-02 0
8.859614e-02 -3.767293e-02 0
9.554937e-02 -3.479539e-02 0
1.015114e-01 -3.133004e-02 0
1.066018e-01 -2.758748e-02 0
1.109235e-01 -2.380057e-02 0
1.145670e-01 -2.013678e-02 0
1.176128e-01 -1.671008e-02 0
1.201327e-01 -1.359171e-02 0
1.221922e-01 -1.081952e-02 0
1.238510e-01 -8.406064e-03 0
1.251640e-01 -6.345452e-03 0
1.261810e-01 -4.619068e-03 0
1.269473e-01 -3.200097e-03 0
1.275037e-01 -2.057045e-03 0
1.278869e-01 -1.156406e-03 0
1.281290e-01 -4.646562e-04 0
1.282585e-01 5.018115e-05 0
1.283007e-01 4.191534e-04 0
1.282775e-01 6.709187e-04 0
1.282074e-01 8.295430e-04 0
1.281055e-01 9.153861e-04 0
1.279840e-01 9.455855e-04 0
1.278526e-01 9.344328e-04 0
1.277188e-01 8.936959e-04 0
1.275878e-01 8.329214e-04 0
1.274637e-01 7.597239e-04 0
1.273489e-01 6.800583e-04 0
1.272450e-01 5.984706e-04 0
1.271528e-01 5.183264e-04 0
1.270722e-01 4.420203e-04 0
1.270030e-01 3.711601e-04 0
1.269446e-01 3.067250e-04 0
1.268959e-01 2.492024e-04 0
1.268562e-01 1.987053e-04 0
1.268243e-01 1.550729e-04 0
1.267993e-01 1.179497e-04 0
1.267801e-01 8.684964e-05 0
1.267658e-01 6.120829e-05 0
1.267556e-01 4.042469e-05 0
1.267487e-01 2.389236e-05 0
1.267444e-01 1.102188e-05 0
1.267422e-01 1.255623e-06 0
1.267416e-01 -5.902075e-06 0
1.267421e-01 -1.088729e-05 0
1.267435e-01 -1.410435e-05 0
1.267454e-01 -1.591948e-05 0
1.267477e-01 -1.665234e-05 0
1.267501e-01 -1.657473e-05 0
1.267526e-01 -1.591304e-05 0
1.267550e-01 -1.485219e-05 0
1.267574e-01 -1.354005e-05 0
1.267595e-01 -1.209220e-05 0
1.267614e-01 -1.059671e-05 0
1.267632e-01 -9.118789e-06 0
1.267647e-01 -7.705001e-06 0
1.267660e-01 -6.387358e-06 0
1.267670e-01 -5.187358e-06 0
1.267679e-01 -4.120486e-06 0
1.267686e-01 -3.202151e-06 0
1.267691e-01 -2.457499e-06 0
1.267695e-01 -1.940611e-06 0
1.267695e-01 -1.748483e-06 0
0.000000e+00 0.000000e+00 0
-7.328778e-02 -2.077590e-01 0
-8.027069e-02 -2.314293e-01 0
-8.277005e-02 -2.265580e-01 0
-8.557581e-02 -2.162297e-01 0
-8.956050e-02 -2.020803e-01 0
-9.476697e-02 -1.797879e-01 0
-1.006894e-01 -1.377635e-01 0
-1.069250e-01 -5.102148e-02 0
0.000000e+00 0.000000e+00 0
2.491481e-02 -1.777549e-02 0
4.744272e-02 -3.430398e-02 0
6.582196e-02 -4.435195e-02 0
8.026326e-02 -4.950765e-02 0
9.158629e-02 -5.130320e-02 0
1.005160e-01 -5.072989e-02 0
1.076077e-01 -4.848132e-02 0
1.132767e-01 -4.509028e-02 0
1.178335e-01 -4.098278e-02 0
1.215119e-01 -3.649920e-02 0
1.244907e-01 -3.190498e-02 0
1.269089e-01 -2.739951e-02 0
1.288745e-01 -2.312538e-02 0
1.304721e-01 -1.917788e-02 0
1.317678e-01 -1.561388e-02 0
1.328139e-01 -1.246003e-02 0
1.336527e-01 -9.719966e-03 0
1.343180e-01 -7.380660e-03 0
1.348378e-01 -5.417633e-03 0
1.352352e-01 -3.799108e-03 0
1.355301e-01 -2.489266e-03 0
1.357393e-01 -1.450762e-03 0
1.358774e-01 -6.466028e-04 0
1.359573e-01 -4.160106e-05 0
1.359898e-01 3.975837e-04 0
1.359859e-01 7.017153e-04 0
1.359552e-01 8.975829e-04 0
1.359059e-01 1.008172e-03 0
1.358449e-01 1.053058e-03 0
1.357776e-01 1.048710e-03 0
1.357083e-01 1.008790e-03 0
1.356401e-01 9.444487e-04 0
1.355751e-01 8.646317e-04 0
1.355150e-01 7.763741e-04 0
1.354605e-01 6.850764e-04 0
1.354121e-01 5.947653e-04 0
1.353700e-01 5.083318e-04 0
1.353339e-01 4.277410e-04 0
1.353036e-01 3.542150e-04 0
1.352785e-01 2.883932e-04 0
1.352580e-01 2.304716e-04 0
1.352418e-01 1.803173e-04 0
1.352292e-01 1.375620e-04 0
1.352196e-01 1.016776e-04 0
1.352126e-01 7.203967e-05 0
1.352077e-01 4.797588e-05 0
1.352045e-01 2.880233e-05 0
1.352026e-01 1.385111e-05 0
1.352018e-01 2.490367e-06 0
1.352017e-01 -5.858062e-06 0
1.352022e-01 -1.171239e-05 0
1.352030e-01 -1.553955e-05 0
1.352041e-01 -1.775650e-05 0
1.352054e-01 -1.872528e-05 0
1.352067e-01 -1.875358e-05 0
1.352081e-01 -1.809827e-05 0
1.352095e-01 -1.696982e-05 0
1.352107e-01 -1.553726e-05 0
1.352119e-01 -1.393343e-05 0
1.352130e-01 -1.226030e-05 0
1.352140e-01 -1.059378e-05 0
1.352149e-01 -8.988359e-06 0
1.352156e-01 -7.481426e-06 0
1.352162e-01 -6.097609e-06 0
1.352168e-01 -4.853759e-06 0
1.352172e-01 -3.766167e-06 0
1.352175e-01 -2.863854e-06 0
1.352177e-01 -2.216843e-06 0
1.352177e-01 -1.969695e-06 0
3.898942e-02 -1.440257e-19 0
1.387779e-16 -1.865266e-19 0
1.387779e-16 -3.415525e-19 0
1.387779e-16 -6.707901e-19 0
1.387779e-16 -1.283550e-18 0
1.387779e-16 -2.438035e-18 0
1.526557e-16 -4.744544e-18 0
1.665335e-16 -9.575293e-18 0
1.804112e-16 -1.962558e-17 0
6.333782e-02 -2.332715e-02 0
8.557362e-02 -5.233802e-02 0
1.014330e-01 -5.992933e-02 0
1.132286e-01 -6.236578e-02 0
1.218174e-01 -6.246288e-02 0
1.279583e-01 -6.082502e-02 0
1.322470e-01 -5.781472e-02 0
1.351495e-01 -5.378331e-02 0
1.370299e-01 -4.906779e-02 0
1.381717e-01 -4.397069e-02 0
1.387939e-01 -3.874746e-02 0
1.390644e-01 -3.360160e-02 0
1.391101e-01 -2.868589e-02 0
1.390236e-01 -2.410732e-02 0
1.388702e-01 -1.993377e-02 0
1.386936e-01 -1.620109e-02 0
1.385217e-01 -1.291994e-02 0
1.383702e-01 -1.008212e-02 0
1.382462e-01 -7.666028e-03 0
1.381513e-01 -5.641148e-03 0
1.380831e-01 -3.971554e-03 0
1.380376e-01 -2.618679e-03 0
1.380099e-01 -1.543408e-03 0
1.379950e-01 -7.076013e-04 0
1.379883e-01 -7.514748e-05 0
1.379855e-01 3.872246e-04 0
1.379845e-01 7.095681e-04 0
1.379843e-01 9.187182e-04 0
1.379846e-01 1.038246e-03 0
1.379854e-01 1.088470e-03 0
1.379866e-01 1.086603e-03 0
1.379882e-01 1.046981e-03 0
1.379902e-01 9.813468e-04 0
1.379925e-01 8.991401e-04 0
1.379952e-01 8.077974e-04 0
1.379980e-01 7.130372e-04 0
1.380011e-01 6.191310e-04 0
1.380043e-01 5.291518e-04 0
1.380074e-01 4.451916e-04 0
1.380105e-01 3.685557e-04 0
1.380136e-01 2.999339e-04 0
1.380164e-01 2.395465e-04 0
1.380191e-01 1.872645e-04 0
1.380215e-01 1.427076e-04 0
1.380237e-01 1.053277e-04 0
1.380257e-01 7.447439e-05 0
1.380274e-01 4.944598e-05 0
1.380288e-01 2.952826e-05 0
1.380300e-01 1.402393e-05 0
1.380310e-01 2.274366e-06 0
1.380318e-01 -6.331579e-06 0
1.380323e-01 -1.235381e-05 0
1.380327e-01 -1.629055e-05 0
1.380330e-01 -1.857420e-05 0
1.380332e-01 -1.957587e-05 0
1.380334e-01 -1.960986e-05 0
1.380335e-01 -1.893835e-05 0
1.380336e-01 -1.777642e-05 0
1.380337e-01 -1.629717e-05 0
1.380337e-01 -1.463709e-05 0
1.380338e-01 -1.290126e-05 0
1.380339e-01 -1.116820e-05 0
1.380339e-01 -9.494390e-06 0
1.380340e-01 -7.918610e-06 0
1.380341e-01 -6.466209e-06 0
1.380341e-01 -5.154234e-06 0
1.380342e-01 -3.999143e-06 0
1.380342e-01 -3.031577e-06 0
1.380342e-01 -2.328807e-06 0
1.380342e-01 -2.057600e-06 0
1.331983e-01 -1.621585e-04 0
1.331983e-01 -2.100103e-04 0
1.334694e-01 -3.845539e-04 0
1.340218e-01 -7.552425e-04 0
1.350705e-01 -1.445149e-03 0
1.369429e-01 -2.744983e-03 0
1.401798e-01 -5.341881e-03 0
1.456921e-01 -1.078082e-02 0
1.549114e-01 -2.209644e-02 0
1.676823e-01 -4.083112e-02 0
1.675706e-01 -5.755860e-02 0
1.665202e-01 -6.512226e-02 0
1.657126e-01 -6.706429e-02 0
1.647050e-01 -6.591716e-02 0
1.632237e-01 -6.292383e-02 0
1.612369e-01 -5.874462e-02 0
1.588432e-01 -5.381209e-02 0
1.561884e-01 -4.845734e-02 0
1.534208e-01 -4.294722e-02 0
1.506707e-01 -3.749370e-02 0
1.480420e-01 -3.225780e-02 0
1.456104e-01 -2.735431e-02 0
1.434245e-01 -2.285788e-02 0
1.415092e-01 -1.880997e-02 0
1.398709e-01 -1.522556e-02 0
1.385020e-01 -1.209969e-02 0
1.373849e-01 -9.413049e-03 0
1.364953e-01 -7.136721e-03 0
1.358059e-01 -5.235853e-03 0
1.352880e-01 -3.672497e-03 0
1.349135e-01 -2.407746e-03 0
1.346561e-01 -1.403302e-03 0
1.344920e-01 -6.225334e-04 0
1.344001e-01 -3.101346e-05 0
1.343622e-01 4.018731e-04 0
1.343641e-01 7.030864e-04 0
1.343947e-01 8.973828e-04 0
1.344449e-01 1.006892e-03 0
1.345075e-01 1.050846e-03 0
1.345771e-01 1.045600e-03 0
1.346495e-01 1.004803e-03 0
1.347214e-01 9.396337e-04 0
1.347905e-01 8.590803e-04 0
1.348553e-01 7.702114e-04 0
1.349148e-01 6.784529e-04 0
1.349685e-01 5.878471e-04 0
1.350160e-01 5.012873e-04 0
1.350576e-01 4.207281e-04 0
1.350933e-01 3.473742e-04 0
1.351236e-01 2.818453e-04 0
1.351488e-01 2.243153e-04 0
1.351696e-01 1.746268e-04 0
1.351864e-01 1.323872e-04 0
1.351997e-01 9.704827e-05 0
1.352100e-01 6.796882e-05 0
1.352178e-01 4.446259e-05 0
1.352234e-01 2.583482e-05 0
1.352273e-01 1.141079e-05 0
1.352298e-01 5.593615e-07 0
1.352311e-01 -7.319546e-06 0
1.352315e-01 -1.278271e-05 0
1.352313e-01 -1.630913e-05 0