<?xml version="1.0"?>
<VTKFile type="StructuredGrid">
<StructuredGrid WholeExtent="0 158 0 30 0 0 ">
<Piece Extent="0 158 0 30 0 0 ">
<Points>
<DataArray type="Float64" format="ascii" NumberOfComponents="3">
0.000000e+00 0.000000e+00 0.000000e+00
3.164557e-02 0.000000e+00 0.000000e+00
6.329114e-02 0.000000e+00 0.000000e+00
9.493671e-02 0.000000e+00 0.000000e+00
1.265823e-01 0.000000e+00 0.000000e+00
1.582278e-01 0.000000e+00 0.000000e+00
1.898734e-01 0.000000e+00 0.000000e+00
2.215190e-01 0.000000e+00 0.000000e+00
2.531646e-01 0.000000e+00 0.000000e+00
2.848101e-01 0.000000e+00 0.000000e+00
3.164557e-01 0.000000e+00 0.000000e+00
3.481013e-01 0.000000e+00 0.000000e+00
3.797468e-01 0.000000e+00 0.000000e+00
4.113924e-01 0.000000e+00 0.000000e+00
4.430380e-01 0.000000e+00 0.000000e+00
4.746835e-01 0.000000e+00 0.000000e+00
5.063291e-01 0.000000e+00 0.000000e+00
5.379747e-01 0.000000e+00 0.000000e+00
5.696203e-01 0.000000e+00 0.000000e+00
6.012658e-01 0.000000e+00 0.000000e+00
6.329114e-01 0.000000e+00 0.000000e+00
6.645570e-01 0.000000e+00 0.000000e+00
6.962025e-01 0.000000e+00 0.000000e+00
7.278481e-01 0.000000e+00 0.000000e+00
7.594937e-01 0.000000e+00 0.000000e+00
7.911392e-01 0.000000e+00 0.000000e+00
8.227848e-01 0.000000e+00 0.000000e+00
8.544304e-01 0.000000e+00 0.000000e+00
8.860759e-01 0.000000e+00 0.000000e+00
9.177215e-01 0.000000e+00 0.000000e+00
9.493671e-01 0.000000e+00 0.000000e+00
9.810127e-01 0.000000e+00 0.000000e+00
1.012658e+00 0.000000e+00 0.000000e+00
1.044304e+00 0.000000e+00 0.000000e+00
1.075949e+00 0.000000e+00 0.000000e+00
1.107595e+00 0.000000e+00 0.000000e+00
1.139241e+00 0.000000e+00 0.000000e+00
1.170886e+00 0.000000e+00 0.000000e+00
1.202532e+00 0.000000e+00 0.000000e+00
1.234177e+00 0.000000e+00 0.000000e+00
1.265823e+00 0.000000e+00 0.000000e+00
1.297468e+00 0.000000e+00 0.000000e+00
1.329114e+00 0.000000e+00 0.000000e+00
1.360759e+00 0.000000e+00 0.000000e+00
1.392405e+00 0.000000e+00 0.000000e+00
1.424051e+00 0.000000e+00 0.000000e+00
1.455696e+00 0.000000e+00 0.000000e+00
1.487342e+00 0.000000e+00 0.000000e+00
1.518987e+00 0.000000e+00 0.000000e+00
1.550633e+00 0.000000e+00 0.000000e+00
1.582278e+00 0.000000e+00 0.000000e+00
1.613924e+00 0.000000e+00 0.000000e+00
1.645570e+00 0.000000e+00 0.000000e+00
1.677215e+00 0.000000e+00 0.000000e+00
1.708861e+00 0.000000e+00 0.000000e+00
1.740506e+00 0.000000e+00 0.000000e+00
1.772152e+00 0.000000e+00 0.000000e+00
1.803797e+00 0.000000e+00 0.000000e+00
1.835443e+00 0.000000e+00 0.000000e+00
1.867089e+00 0.000000e+00 0.000000e+00
1.898734e+00 0.000000e+00 0.000000e+00
1.930380e+00 0.000000e+00 0.000000e+00
1.962025e+00 0.000000e+00 0.000000e+00
1.993671e+00 0.000000e+00 0.000000e+00
2.025316e+00 0.000000e+00 0.000000e+00
2.056962e+00 0.000000e+00 0.000000e+00
2.088608e+00 0.000000e+00 0.000000e+00
2.120253e+00 0.000000e+00 0.000000e+00
2.151899e+00 0.000000e+00 0.000000e+00
2.183544e+00 0.000000e+00 0.000000e+00
2.215190e+00 0.000000e+00 0.000000e+00
2.246835e+00 0.000000e+00 0.000000e+00
2.278481e+00 0.000000e+00 0.000000e+00
2.310127e+00 0.000000e+00 0.000000e+00
2.341772e+00 0.000000e+00 0.000000e+00
2.373418e+00 0.000000e+00 0.000000e+00
2.405063e+00 0.000000e+00 0.000000e+00
2.436709e+00 0.000000e+00 0.000000e+00
2.468354e+00 0.000000e+00 0.000000e+00
2.500000e+00 0.000000e+00 0.000000e+00
2.531646e+00 0.000000e+00 0.000000e+00
2.563291e+00 0.000000e+00 0.000000e+00
2.594937e+00 0.000000e+00 0.000000e+00
2.626582e+00 0.000000e+00 0.000000e+00
2.658228e+00 0.000000e+00 0.000000e+00
2.689873e+00 0.000000e+00 0.000000e+00
2.721519e+00 0.000000e+00 0.000000e+00
2.753165e+00 0.000000e+00 0.000000e+00
2.784810e+00 0.000000e+00 0.000000e+00
2.816456e+00 0.000000e+00 0.000000e+00
2.848101e+00 0.000000e+00 0.000000e+00
2.879747e+00 0.000000e+00 0.000000e+00
2.911392e+00 0.000000e+00 0.000000e+00
2.943038e+00 0.000000e+00 0.000000e+00
2.974684e+00 0.000000e+00 0.000000e+00
3.006329e+00 0.000000e+00 0.000000e+00
3.037975e+00 0.000000e+00 0.000000e+00
3.069620e+00 0.000000e+00 0.000000e+00
3.101266e+00 0.000000e+00 0.000000e+00
3.132911e+00 0.000000e+00 0.000000e+00
3.164557e+00 0.000000e+00 0.000000e+00
3.196203e+00 0.000000e+00 0.000000e+00
3.227848e+00 0.000000e+00 0.000000e+00
3.259494e+00 0.000000e+00 0.000000e+00
3.291139e+00 0.000000e+00 0.000000e+00
3.322785e+00 0.000000e+00 0.000000e+00
3.354430e+00 0.000000e+00 0.000000e+00
3.386076e+00 0.000000e+00 0.000000e+00
3.417722e+00 0.000000e+00 0.000000e+00
3.449367e+00 0.000000e+00 0.000000e+00
3.481013e+00 0.000000e+00 0.000000e+00
3.512658e+00 0.000000e+00 0.000000e+00
3.544304e+00 0.000000e+00 0.000000e+00
3.575949e+00 0.000000e+00 0.000000e+00
3.607595e+00 0.000000e+00 0.000000e+00
3.639241e+00 0.000000e+00 0.000000e+00
3.670886e+00 0.000000e+00 0.000000e+00
3.702532e+00 0.000000e+00 0.000000e+00
3.734177e+00 0.000000e+00 0.000000e+00
3.765823e+00 0.000000e+00 0.000000e+00
3.797468e+00 0.000000e+00 0.000000e+00
3.829114e+00 0.000000e+00 0.000000e+00
3.860759e+00 0.000000e+00 0.000000e+00
3.892405e+00 0.000000e+00 0.000000e+00
3.924051e+00 0.000000e+00 0.000000e+00
3.955696e+00 0.000000e+00 0.000000e+00
3.987342e+00 0.000000e+00 0.000000e+00
4.018987e+00 0.000000e+00 0.000000e+00
4.050633e+00 0.000000e+00 0.000000e+00
4.082278e+00 0.000000e+00 0.000000e+00
4.113924e+00 0.000000e+00 0.000000e+00
4.145570e+00 0.000000e+00 0.000000e+00
4.177215e+00 0.000000e+00 0.000000e+00
4.208861e+00 0.000000e+00 0.000000e+00
4.240506e+00 0.000000e+00 0.000000e+00
4.272152e+00 0.000000e+00 0.000000e+00
4.303797e+00 0.000000e+00 0.000000e+00
4.335443e+00 0.000000e+00 0.000000e+00
4.367089e+00 0.000000e+00 0.000000e+00
4.398734e+00 0.000000e+00 0.000000e+00
4.430380e+00 0.000000e+00 0.000000e+00
4.462025e+00 0.000000e+00 0.000000e+00
4.493671e+00 0.000000e+00 0.000000e+00
4.525316e+00 0.000000e+00 0.000000e+00
4.556962e+00 0.000000e+00 0.000000e+00
4.588608e+00 0.000000e+00 0.000000e+00
4.620253e+00 0.000000e+00 0.000000e+00
4.651899e+00 0.000000e+00 0.000000e+00
4.683544e+00 0.000000e+00 0.000000e+00
4.715190e+00 0.000000e+00 0.000000e+00
4.746835e+00 0.000000e+00 0.000000e+00
4.778481e+00 0.000000e+00 0.000000e+00
4.810127e+00 0.000000e+00 0.000000e+00
4.841772e+00 0.000000e+00 0.000000e+00
4.873418e+00 0.000000e+00 0.000000e+00
4.905063e+00 0.000000e+00 0.000000e+00
4.936709e+00 0.000000e+00 0.000000e+00
4.968354e+00 0.000000e+00 0.000000e+00
5.000000e+00 0.000000e+00 0.000000e+00
0.000000e+00 3.333333e-02 0.000000e+00
3.164557e-02 3.333333e-02 0.000000e+00
6.329114e-02 3.333333e-02 0.000000e+00
9.493671e-02 3.333333e-02 0.000000e+00
1.265823e-01 3.333333e-02 0.000000e+00
1.582278e-01 3.333333e-02 0.000000e+00
1.898734e-01 3.333333e-02 0.000000e+00
2.215190e-01 3.333333e-02 0.000000e+00
2.531646e-01 3.333333e-02 0.000000e+00
2.848101e-01 3.333333e-02 0.000000e+00
3.164557e-01 3.333333e-02 0.000000e+00
3.481013e-01 3.333333e-02 0.000000e+00
3.797468e-01 3.333333e-02 0.000000e+00
4.113924e-01 3.333333e-02 0.000000e+00
4.430380e-01 3.333333e-02 0.000000e+00
4.746835e-01 3.333333e-02 0.000000e+00
5.063291e-01 3.333333e-02 0.000000e+00
5.379747e-01 3.333333e-02 0.000000e+00
5.696203e-01 3.333333e-02 0.000000e+00
6.012658e-01 3.333333e-02 0.000000e+00
6.329114e-01 3.333333e-02 0.000000e+00
6.645570e-01 3.333333e-02 0.000000e+00
6.962025e-01 3.333333e-02 0.000000e+00
7.278481e-01 3.333333e-02 0.000000e+00
7.594937e-01 3.333333e-02 0.000000e+00
7.911392e-01 3.333333e-02 0.000000e+00
8.227848e-01 3.333333e-02 0.000000e+00
8.544304e-01 3.333333e-02 0.000000e+00
8.860759e-01 3.333333e-02 0.000000e+00
9.177215e-01 3.333333e-02 0.000000e+00
9.493671e-01 3.333333e-02 0.000000e+00
9.810127e-01 3.333333e-02 0.000000e+00
1.012658e+00 3.333333e-02 0.000000e+00
1.044304e+00 3.333333e-02 0.000000e+00
1.075949e+00 3.333333e-02 0.000000e+00
1.107595e+00 3.333333e-02 0.000000e+00
1.139241e+00 3.333333e-02 0.000000e+00
1.170886e+00 3.333333e-02 0.000000e+00
1.202532e+00 3.333333e-02 0.000000e+00
1.234177e+00 3.333333e-02 0.000000e+00
1.265823e+00 3.333333e-02 0.000000e+00
1.297468e+00 3.333333e-02 0.000000e+00
1.329114e+00 3.333333e-02 0.000000e+00
1.360759e+00 3.333333e-02 0.000000e+00
1.392405e+00 3.333333e-02 0.000000e+00
1.424051e+00 3.333333e-02 0.000000e+00
1.455696e+00 3.333333e-02 0.000000e+00
1.487342e+00 3.333333e-02 0.000000e+00
1.518987e+00 3.333333e-02 0.000000e+00
1.550633e+00 3.333333e-02 0.000000e+00
1.582278e+00 3.333333e-02 0.000000e+00
1.613924e+00 3.333333e-02 0.000000e+00
1.645570e+00 3.333333e-02 0.000000e+00
1.677215e+00 3.333333e-02 0.000000e+00
1.708861e+00 3.333333e-02 0.000000e+00
1.740506e+00 3.333333e-02 0.000000e+00
1.772152e+00 3.333333e-02 0.000000e+00
1.803797e+00 3.333333e-02 0.000000e+00
1.835443e+00 3.333333e-02 0.000000e+00
1.867089e+00 3.333333e-02 0.000000e+00
1.898734e+00 3.333333e-02 0.000000e+00
1.930380e+00 3.333333e-02 0.000000e+00
1.962025e+00 3.333333e-02 0.000000e+00
1.993671e+00 3.333333e-02 0.000000e+00
2.025316e+00 3.333333e-02 0.000000e+00
2.056962e+00 3.333333e-02 0.000000e+00
2.088608e+00 3.333333e-02 0.000000e+00
2.120253e+00 3.333333e-02 0.000000e+00
2.151899e+00 3.333333e-02 0.000000e+00
2.183544e+00 3.333333e-02 0.000000e+00
2.215190e+00 3.333333e-02 0.000000e+00
2.246835e+00 3.333333e-02 0.000000e+00
2.278481e+00 3.333333e-02 0.000000e+00
2.310127e+00 3.333333e-02 0.000000e+00
2.341772e+00 3.333333e-02 0.000000e+00
2.373418e+00 3.333333e-02 0.000000e+00
2.405063e+00 3.333333e-02 0.000000e+00
2.436709e+00 3.333333e-02 0.000000e+00
2.468354e+00 3.333333e-02 0.000000e+00
2.500000e+00 3.333333e-02 0.000000e+00
2.531646e+00 3.333333e-02 0.000000e+00
2.563291e+00 3.333333e-02 0.000000e+00
2.594937e+00 3.333333e-02 0.000000e+00
2.626582e+00 3.333333e-02 0.000000e+00
2.658228e+00 3.333333e-02 0.000000e+00
2.689873e+00 3.333333e-02 0.000000e+00
2.721519e+00 3.333333e-02 0.000000e+00
2.753165e+00 3.333333e-02 0.000000e+00
2.784810e+00 3.333333e-02 0.000000e+00
2.816456e+00 3.333333e-02 0.000000e+00
2.848101e+00 3.333333e-02 0.000000e+00
2.879747e+00 3.333333e-02 0.000000e+00
[...]
<PointData>
<DataArray Name="Velocity" type="Float64" format="ascii" NumberOfComponents="3">
0.000000e+00 0.000000e+00 0
0.000000e+00 0.000000e+00 0
0.000000e+00 0.000000e+00 0
0.000000e+00 0.000000e+00 0
0.000000e+00 0.000000e+00 0
0.000000e+00 0.000000e+00 0
0.000000e+00 0.000000e+00 0
0.000000e+00 0.000000e+00 0
0.000000e+00 0.000000e+00 0
0.000000e+00 0.000000e+00 0
0.000000e+00 0.000000e+00 0
0.000000e+00 0.000000e+00 0
0.000000e+00 0.000000e+00 0
0.000000e+00 0.000000e+00 0
0.000000e+00 0.000000e+00 0
0.000000e+00 0.000000e+00 0
0.000000e+00 0.000000e+00 0
0.000000e+00 0.000000e+00 0
0.000000e+00 0.000000e+00 0
-7.950100e-18 0.000000e+00 0
0.000000e+00 0.000000e+00 0
0.000000e+00 0.000000e+00 0
0.000000e+00 0.000000e+00 0
-7.951003e-18 0.000000e+00 0
0.000000e+00 0.000000e+00 0
0.000000e+00 0.000000e+00 0
0.000000e+00 0.000000e+00 0
-7.951577e-18 0.000000e+00 0
0.000000e+00 0.000000e+00 0
0.000000e+00 0.000000e+00 0
0.000000e+00 0.000000e+00 0
-7.951870e-18 0.000000e+00 0
0.000000e+00 0.000000e+00 0
0.000000e+00 0.000000e+00 0
0.000000e+00 0.000000e+00 0
0.000000e+00 0.000000e+00 0
0.000000e+00 0.000000e+00 0
0.000000e+00 0.000000e+00 0
1.185017e-17 0.000000e+00 0
0.000000e+00 0.000000e+00 0
0.000000e+00 0.000000e+00 0
0.000000e+00 0.000000e+00 0
0.000000e+00 0.000000e+00 0
0.000000e+00 0.000000e+00 0
0.000000e+00 0.000000e+00 0
0.000000e+00 0.000000e+00 0
1.184634e-17 0.000000e+00 0
0.000000e+00 0.000000e+00 0
0.000000e+00 0.000000e+00 0
0.000000e+00 0.000000e+00 0
0.000000e+00 0.000000e+00 0
0.000000e+00 0.000000e+00 0
0.000000e+00 0.000000e+00 0
0.000000e+00 0.000000e+00 0
1.184233e-17 0.000000e+00 0
0.000000e+00 0.000000e+00 0
0.000000e+00 0.000000e+00 0
0.000000e+00 0.000000e+00 0
0.000000e+00 0.000000e+00 0
0.000000e+00 0.000000e+00 0
0.000000e+00 0.000000e+00 0
0.000000e+00 0.000000e+00 0
1.183859e-17 0.000000e+00 0
0.000000e+00 0.000000e+00 0
0.000000e+00 0.000000e+00 0
0.000000e+00 0.000000e+00 0
0.000000e+00 0.000000e+00 0
0.000000e+00 0.000000e+00 0
0.000000e+00 0.000000e+00 0
0.000000e+00 0.000000e+00 0
0.000000e+00 0.000000e+00 0
0.000000e+00 0.000000e+00 0
0.000000e+00 0.000000e+00 0
0.000000e+00 0.000000e+00 0
0.000000e+00 0.000000e+00 0
0.000000e+00 0.000000e+00 0
0.000000e+00 0.000000e+00 0
0.000000e+00 0.000000e+00 0
0.000000e+00 0.000000e+00 0
0.000000e+00 0.000000e+00 0
0.000000e+00 0.000000e+00 0
0.000000e+00 0.000000e+00 0
0.000000e+00 0.000000e+00 0
0.000000e+00 0.000000e+00 0
0.000000e+00 0.000000e+00 0
0.000000e+00 0.000000e+00 0
0.000000e+00 0.000000e+00 0
0.000000e+00 0.000000e+00 0
0.000000e+00 0.000000e+00 0
0.000000e+00 0.000000e+00 0
0.000000e+00 0.000000e+00 0
0.000000e+00 0.000000e+00 0
0.000000e+00 0.000000e+00 0
0.000000e+00 0.000000e+00 0
0.000000e+00 0.000000e+00 0
0.000000e+00 0.000000e+00 0
0.000000e+00 0.000000e+00 0
0.000000e+00 0.000000e+00 0
0.000000e+00 0.000000e+00 0
0.000000e+00 0.000000e+00 0
0.000000e+00 0.000000e+00 0
0.000000e+00 0.000000e+00 0
0.000000e+00 0.000000e+00 0
0.000000e+00 0.000000e+00 0
0.000000e+00 0.000000e+00 0
0.000000e+00 0.000000e+00 0
0.000000e+00 0.000000e+00 0
0.000000e+00 0.000000e+00 0
0.000000e+00 0.000000e+00 0
0.000000e+00 0.000000e+00 0
0.000000e+00 0.000000e+00 0
0.000000e+00 0.000000e+00 0
0.000000e+00 0.000000e+00 0
0.000000e+00 0.000000e+00 0
0.000000e+00 0.000000e+00 0
0.000000e+00 0.000000e+00 0
0.000000e+00 0.000000e+00 0
0.000000e+00 0.000000e+00 0
0.000000e+00 0.000000e+00 0
0.000000e+00 0.000000e+00 0
0.000000e+00 0.000000e+00 0
0.000000e+00 0.000000e+00 0
0.000000e+00 0.000000e+00 0
0.000000e+00 0.000000e+00 0
0.000000e+00 0.000000e+00 0
0.000000e+00 0.000000e+00 0
0.000000e+00 0.000000e+00 0
0.000000e+00 0.000000e+00 0
0.000000e+00 0.000000e+00 0
0.000000e+00 0.000000e+00 0
0.000000e+00 0.000000e+00 0
0.000000e+00 0.000000e+00 0
0.000000e+00 0.000000e+00 0
0.000000e+00 0.000000e+00 0
0.000000e+00 0.000000e+00 0
0.000000e+00 0.000000e+00 0
0.000000e+00 0.000000e+00 0
0.000000e+00 0.000000e+00 0
0.000000e+00 0.000000e+00 0
0.000000e+00 0.000000e+00 0
0.000000e+00 0.000000e+00 0
0.000000e+00 0.000000e+00 0
0.000000e+00 0.000000e+00 0
0.000000e+00 0.000000e+00 0
0.000000e+00 0.000000e+00 0
0.000000e+00 0.000000e+00 0
0.000000e+00 0.000000e+00 0
0.000000e+00 0.000000e+00 0
0.000000e+00 0.000000e+00 0
0.000000e+00 0.000000e+00 0
0.000000e+00 0.000000e+00 0
0.000000e+00 0.000000e+00 0
0.000000e+00 0.000000e+00 0
0.000000e+00 0.000000e+00 0
0.000000e+00 0.000000e+00 0
0.000000e+00 0.000000e+00 0
0.000000e+00 0.000000e+00 0
0.000000e+00 0.000000e+00 0
0.000000e+00 0.000000e+00 0
4.262294e-01 4.837824e-07 0
4.262294e-01 7.924862e-07 0
4.262290e-01 9.487852e-07 0
4.262279e-01 5.217538e-07 0
4.262271e-01 2.183939e-07 0
4.262273e-01 4.115053e-07 0
4.262279e-01 8.458416e-07 0
4.262284e-01 1.096556e-06 0
4.262283e-01 9.917273e-07 0
4.262279e-01 6.714986e-07 0
4.262276e-01 4.143955e-07 0
4.262276e-01 3.696273e-07 0
4.262278e-01 4.799197e-07 0
4.262279e-01 5.720738e-07 0
4.262279e-01 5.220430e-07 0
4.262278e-01 3.530974e-07 0
4.262277e-01 1.760004e-07 0
4.262276e-01 7.799508e-08 0
4.262277e-01 7.191276e-08 0
4.262278e-01 1.117698e-07 0
4.262278e-01 1.409422e-07 0
4.262278e-01 1.367453e-07 0
4.262278e-01 1.109669e-07 0
4.262277e-01 8.580284e-08 0
4.262277e-01 7.529477e-08 0
4.262277e-01 7.729529e-08 0
4.262278e-01 8.067598e-08 0
4.262278e-01 7.640059e-08 0
4.262278e-01 6.338837e-08 0
4.262278e-01 4.793641e-08 0
4.262278e-01 3.785850e-08 0
4.262279e-01 3.622686e-08 0
4.262279e-01 4.057337e-08 0
4.262279e-01 4.744951e-08 0
4.262279e-01 5.667526e-08 0
4.262279e-01 7.188208e-08 0
4.262279e-01 9.621319e-08 0
4.262279e-01 1.267930e-07 0
4.262279e-01 1.543564e-07 0
4.262278e-01 1.686955e-07 0
4.262278e-01 1.659936e-07 0
4.262277e-01 1.524671e-07 0
4.262276e-01 1.412991e-07 0
4.262275e-01 1.445160e-07 0
4.262275e-01 1.649249e-07 0
4.262274e-01 1.934646e-07 0
4.262273e-01 2.141610e-07 0
4.262272e-01 2.140652e-07 0
4.262271e-01 1.920972e-07 0
4.262270e-01 1.609312e-07 0
4.262269e-01 1.400049e-07 0
4.262268e-01 1.433167e-07 0
4.262267e-01 1.696232e-07 0
4.262266e-01 2.020869e-07 0
4.262265e-01 2.188015e-07 0
4.262264e-01 2.078657e-07 0
4.262263e-01 1.763762e-07 0
4.262261e-01 1.459468e-07 0
4.262260e-01 1.370094e-07 0
4.262260e-01 1.533163e-07 0
4.262259e-01 1.788047e-07 0
4.262258e-01 1.900041e-07 0
4.262257e-01 1.746708e-07 0
4.262256e-01 1.414860e-07 0
4.262255e-01 1.128070e-07 0
4.262255e-01 1.062629e-07 0
4.262255e-01 1.204792e-07 0
4.262255e-01 1.363460e-07 0
4.262254e-01 1.336397e-07 0
4.262254e-01 1.070929e-07 0
4.262254e-01 6.957679e-08 0
4.262254e-01 4.166649e-08 0
4.262255e-01 3.521534e-08 0
4.262256e-01 4.470061e-08 0
4.262257e-01 5.360252e-08 0
4.262257e-01 4.979192e-08 0
4.262258e-01 3.475346e-08 0
4.262258e-01 2.014765e-08 0
4.262259e-01 1.661652e-08 0
4.262259e-01 2.519596e-08 0
4.262260e-01 3.783752e-08 0
4.262261e-01 4.499765e-08 0
4.262261e-01 4.292289e-08 0
4.262262e-01 3.502560e-08 0
4.262262e-01 2.768302e-08 0
4.262263e-01 2.504073e-08 0
4.262263e-01 2.693818e-08 0
4.262264e-01 3.053163e-08 0
4.262264e-01 3.324277e-08 0
4.262265e-01 3.445040e-08 0
4.262265e-01 3.513579e-08 0
4.262266e-01 3.648720e-08 0
4.262266e-01 3.889422e-08 0
4.262266e-01 4.190983e-08 0
4.262267e-01 4.483486e-08 0
4.262267e-01 4.726277e-08 0
4.262267e-01 4.903850e-08 0
4.262267e-01 5.025436e-08 0
4.262267e-01 5.128988e-08 0
4.262268e-01 5.253439e-08 0
4.262268e-01 5.414133e-08 0
4.262268e-01 5.577349e-08 0
4.262268e-01 5.657475e-08 0
4.262268e-01 5.561974e-08 0
4.262268e-01 5.264848e-08 0
4.262268e-01 4.853375e-08 0
4.262268e-01 4.498468e-08 0
4.262269e-01 4.351926e-08 0
4.262269e-01 4.448805e-08 0
4.262269e-01 4.694647e-08 0
4.262269e-01 4.889785e-08 0
4.262269e-01 4.779795e-08 0
4.262270e-01 4.166597e-08 0
4.262270e-01 3.047008e-08 0
4.262270e-01 1.662789e-08 0
4.262271e-01 4.108530e-09 0
4.262271e-01 -3.872074e-09 0
4.262272e-01 -7.569248e-09 0
4.262272e-01 -8.885680e-09 0
4.262273e-01 -8.708329e-09 0
4.262274e-01 -7.501290e-09 0
4.262274e-01 -5.677990e-09 0
4.262275e-01 -3.540892e-09 0
4.262276e-01 -1.302236e-09 0
4.262276e-01 6.931328e-10 0
4.262277e-01 2.230101e-09 0
4.262278e-01 3.508639e-09 0
4.262278e-01 4.901862e-09 0
4.262279e-01 6.612127e-09 0
4.262279e-01 8.394855e-09 0
4.262280e-01 9.695074e-09 0
4.262280e-01 1.006120e-08 0
4.262280e-01 9.385121e-09 0
4.262281e-01 7.799103e-09 0
4.262281e-01 5.493020e-09 0
4.262282e-01 2.756744e-09 0
4.262282e-01 1.124967e-10 0
4.262282e-01 -1.992887e-09 0
4.262283e-01 -3.510498e-09 0
4.262283e-01 -4.567262e-09 0
4.262284e-01 -5.259184e-09 0
4.262284e-01 -5.660651e-09 0
4.262285e-01 -5.835107e-09 0
4.262285e-01 -5.852833e-09 0
4.262285e-01 -5.773410e-09 0
4.262286e-01 -5.659758e-09 0
4.262286e-01 -5.567968e-09 0
4.262287e-01 -5.514694e-09 0
4.262287e-01 -5.496069e-09 0
4.262287e-01 -5.475136e-09 0
4.262288e-01 -5.444056e-09 0
4.262288e-01 -5.433169e-09 0
4.262289e-01 -5.470467e-09 0
4.262289e-01 -5.536369e-09 0
4.262289e-01 -5.658780e-09 0
4.262290e-01 -5.963261e-09 0
4.262290e-01 -6.494674e-09 0
4.262290e-01 -1.800384e-08 0
4.262290e-01 -2.919416e-08 0
6.886973e-01 1.744736e-07 0
6.886973e-01 1.839422e-07 0
6.886960e-01 -1.039424e-08 0
6.886949e-01 -3.643632e-07 0
6.886949e-01 -3.635116e-07 0
6.886956e-01 8.579096e-08 0
6.886964e-01 5.749525e-07 0
6.886965e-01 7.374281e-07 0
6.886961e-01 5.605327e-07 0
6.886958e-01 2.966400e-07 0
6.886958e-01 1.784994e-07 0
6.886962e-01 2.539261e-07 0
6.886965e-01 4.008482e-07 0
6.886967e-01 4.672241e-07 0
6.886967e-01 3.987658e-07 0
6.886967e-01 2.514727e-07 0
6.886967e-01 1.149469e-07 0
6.886968e-01 4.270458e-08 0
6.886970e-01 3.309392e-08 0
6.886971e-01 5.141359e-08 0
6.886972e-01 6.575338e-08 0
6.886973e-01 6.381709e-08 0
6.886974e-01 5.029205e-08 0
6.886974e-01 3.443074e-08 0
6.886975e-01 2.088242e-08 0
6.886976e-01 9.793419e-09 0
6.886977e-01 -1.564258e-09 0
6.886978e-01 -1.579169e-08 0
6.886978e-01 -3.197155e-08 0
6.886979e-01 -4.546164e-08 0
6.886979e-01 -5.174231e-08 0
6.886980e-01 -4.957312e-08 0
6.886980e-01 -4.044856e-08 0
6.886981e-01 -2.577677e-08 0
6.886981e-01 -4.539794e-09 0
6.886982e-01 2.450980e-08 0
6.886982e-01 5.938412e-08 0
6.886982e-01 9.442926e-08 0
6.886982e-01 1.225755e-07 0
6.886982e-01 1.394176e-07 0
6.886982e-01 1.463815e-07 0
6.886982e-01 1.506106e-07 0
6.886983e-01 1.611249e-07 0
6.886983e-01 1.832133e-07 0
6.886983e-01 2.144303e-07 0
6.886983e-01 2.450411e-07 0
6.886983e-01 2.632939e-07 0
6.886982e-01 2.628090e-07 0
6.886982e-01 2.475402e-07 0
6.886981e-01 2.306027e-07 0
6.886980e-01 2.267364e-07 0
6.886980e-01 2.425352e-07 0
6.886980e-01 2.709928e-07 0
6.886979e-01 2.950136e-07 0
6.886979e-01 2.987052e-07 0
6.886978e-01 2.790363e-07 0
6.886976e-01 2.488814e-07 0
6.886976e-01 2.280680e-07 0
6.886975e-01 2.283589e-07 0
6.886975e-01 2.439095e-07 0
6.886974e-01 2.554414e-07 0
6.886974e-01 2.455306e-07 0
6.886973e-01 2.128720e-07 0
6.886972e-01 1.734125e-07 0
6.886971e-01 1.469976e-07 0
6.886971e-01 1.408740e-07 0
6.886971e-01 1.432150e-07 0
6.886971e-01 1.325890e-07 0
6.886971e-01 9.517316e-08 0
6.886971e-01 3.559928e-08 0
6.886971e-01 -2.446472e-08 0
6.886972e-01 -6.157503e-08 0
6.886973e-01 -7.014541e-08 0
6.886974e-01 -6.427815e-08 0
6.886975e-01 -6.200699e-08 0
6.886975e-01 -7.084722e-08 0
6.886976e-01 -8.464408e-08 0
6.886977e-01 -9.192725e-08 0
6.886978e-01 -8.687130e-08 0
6.886979e-01 -7.353450e-08 0
6.886981e-01 -6.126798e-08 0
6.886982e-01 -5.675366e-08 0
6.886983e-01 -5.970239e-08 0
6.886984e-01 -6.474276e-08 0
6.886985e-01 -6.651999e-08 0
6.886986e-01 -6.330166e-08 0
6.886987e-01 -5.686670e-08 0
6.886988e-01 -4.995490e-08 0
6.886989e-01 -4.398103e-08 0
6.886990e-01 -3.860687e-08 0
6.886991e-01 -3.278633e-08 0
6.886992e-01 -2.594446e-08 0
6.886993e-01 -1.834599e-08 0
6.886994e-01 -1.071511e-08 0
6.886995e-01 -3.774258e-09 0
6.886995e-01 2.021478e-09 0
6.886996e-01 6.783132e-09 0
6.886997e-01 1.089342e-08 0
6.886997e-01 1.463974e-08 0
6.886998e-01 1.825542e-08 0
6.886999e-01 2.167720e-08 0
6.886999e-01 2.433300e-08 0
6.887000e-01 2.529252e-08 0
6.887000e-01 2.390459e-08 0
6.887001e-01 2.053254e-08 0
6.887001e-01 1.667286e-08 0
6.887002e-01 1.417105e-08 0
6.887002e-01 1.390904e-08 0
6.887002e-01 1.496257e-08 0
6.887003e-01 1.477425e-08 0
6.887003e-01 1.017165e-08 0
6.887004e-01 -5.714510e-10 0
6.887004e-01 -1.598244e-08 0
6.887005e-01 -3.276520e-08 0
6.887006e-01 -4.806078e-08 0
6.887006e-01 -6.076217e-08 0
6.887007e-01 -7.185182e-08 0
6.887007e-01 -8.214371e-08 0
6.887008e-01 -9.116600e-08 0
6.887009e-01 -9.827350e-08 0
6.887010e-01 -1.031322e-07 0
6.887010e-01 -1.055988e-07 0
6.887011e-01 -1.056031e-07 0
6.887012e-01 -1.032748e-07 0
6.887013e-01 -9.903754e-08 0
6.887014e-01 -9.347801e-08 0
6.887015e-01 -8.702590e-08 0
6.887015e-01 -7.995225e-08 0
6.887016e-01 -7.274594e-08 0
6.887017e-01 -6.620112e-08 0
6.887018e-01 -6.107275e-08 0
6.887018e-01 -5.767781e-08 0
6.887019e-01 -5.586912e-08 0
6.887020e-01 -5.531527e-08 0
6.887021e-01 -5.572768e-08 0
6.887021e-01 -5.688121e-08 0
6.887022e-01 -5.862028e-08 0
6.887023e-01 -6.081017e-08 0
6.887023e-01 -6.323556e-08 0
6.887024e-01 -6.567480e-08 0
6.887024e-01 -6.794912e-08 0
6.887025e-01 -6.990388e-08 0
6.887026e-01 -7.143947e-08 0
6.887026e-01 -7.251119e-08 0
6.887027e-01 -7.312132e-08 0
6.887028e-01 -7.333014e-08 0
6.887029e-01 -7.322157e-08 0
6.887029e-01 -7.288383e-08 0
6.887030e-01 -7.237153e-08 0
6.887031e-01 -7.174594e-08 0
6.887031e-01 -7.108510e-08 0
6.887032e-01 -7.047233e-08 0
6.887032e-01 -6.987689e-08 0
6.887033e-01 -6.924859e-08 0
6.887034e-01 -6.852683e-08 0
6.887034e-01 -6.764840e-08 0
6.887035e-01 -6.633080e-08 0
6.887036e-01 -6.939659e-08 0
6.887036e-01 -7.331139e-08 0
8.395464e-01 -9.867367e-08 0
8.395464e-01 -3.641906e-07 0
8.395447e-01 -8.358483e-07 0
8.395441e-01 -1.020294e-06 0
8.395448e-01 -7.157285e-07 0
8.395457e-01 -1.406377e-07 0
8.395460e-01 2.553270e-07 0
8.395457e-01 2.788092e-07 0
8.395452e-01 7.829405e-08 0
8.395450e-01 -7.809301e-08 0
8.395453e-01 -5.056163e-08 0
8.395457e-01 1.074425e-07 0
8.395460e-01 2.528538e-07 0
8.395460e-01 2.907762e-07 0
8.395459e-01 2.303344e-07 0
8.395459e-01 1.368958e-07 0
8.395459e-01 6.245311e-08 0
8.395460e-01 2.073498e-08 0
8.395461e-01 -7.522050e-10 0
8.395462e-01 -1.564606e-08 0
8.395462e-01 -2.658653e-08 0
8.395463e-01 -3.072703e-08 0
8.395464e-01 -2.823959e-08 0
8.395464e-01 -2.362651e-08 0
8.395465e-01 -2.168815e-08 0
8.395465e-01 -2.415925e-08 0
8.395466e-01 -2.981032e-08 0
8.395466e-01 -3.648085e-08 0
8.395466e-01 -4.271407e-08 0
8.395466e-01 -4.766312e-08 0
8.395466e-01 -5.016971e-08 0
8.395466e-01 -4.830808e-08 0
8.395465e-01 -3.958888e-08 0
8.395465e-01 -2.208970e-08 0
8.395465e-01 4.261855e-09 0
8.395465e-01 3.678985e-08 0
8.395465e-01 6.994483e-08 0
8.395465e-01 9.717080e-08 0
8.395464e-01 1.142263e-07 0
8.395464e-01 1.218679e-07 0
8.395464e-01 1.261865e-07 0
8.395464e-01 1.358307e-07 0
8.395464e-01 1.572109e-07 0
8.395464e-01 1.903103e-07 0
8.395464e-01 2.278053e-07 0
8.395464e-01 2.585708e-07 0
8.395464e-01 2.740646e-07 0
8.395463e-01 2.739958e-07 0
8.395463e-01 2.674829e-07 0
8.395463e-01 2.681424e-07 0
8.395462e-01 2.853643e-07 0
8.395462e-01 3.171751e-07 0
8.395462e-01 3.501098e-07 0
8.395462e-01 3.674608e-07 0
8.395461e-01 3.611093e-07 0
8.395460e-01 3.383615e-07 0
8.395459e-01 3.176003e-07 0
8.395459e-01 3.147373e-07 0
8.395458e-01 3.304537e-07 0
8.395458e-01 3.487443e-07 0
8.395457e-01 3.490328e-07 0
8.395456e-01 3.226960e-07 0
8.395455e-01 2.802436e-07 0
8.395454e-01 2.426901e-07 0
8.395454e-01 2.238170e-07 0
8.395454e-01 2.184409e-07 0
8.395454e-01 2.065679e-07 0
8.395453e-01 1.701014e-07 0
8.395452e-01 1.079941e-07 0
8.395452e-01 3.767053e-08 0
8.395451e-01 -1.890121e-08 0
8.395451e-01 -5.087776e-08 0
8.395452e-01 -6.529981e-08 0
8.395452e-01 -7.952947e-08 0
8.395451e-01 -1.046968e-07 0
8.395451e-01 -1.376707e-07 0
8.395451e-01 -1.660502e-07 0
8.395452e-01 -1.799163e-07 0
8.395452e-01 -1.796183e-07 0
8.395453e-01 -1.740232e-07 0
8.395454e-01 -1.723865e-07 0
8.395454e-01 -1.775573e-07 0
8.395455e-01 -1.855407e-07 0
8.395456e-01 -1.902487e-07 0
8.395456e-01 -1.884780e-07 0
8.395457e-01 -1.813021e-07 0
8.395458e-01 -1.719364e-07 0
8.395459e-01 -1.628216e-07 0
8.395460e-01 -1.543512e-07 0
8.395461e-01 -1.455911e-07 0
8.395462e-01 -1.356924e-07 0
8.395463e-01 -1.246534e-07 0
8.395464e-01 -1.131264e-07 0
8.395465e-01 -1.018239e-07 0
8.395466e-01 -9.113872e-08 0
8.395467e-01 -8.116879e-08 0
8.395468e-01 -7.195418e-08 0
8.395469e-01 -6.344893e-08 0
8.395469e-01 -5.544816e-08 0
8.395470e-01 -4.780773e-08 0
8.395471e-01 -4.074933e-08 0
8.395472e-01 -3.499592e-08 0
8.395473e-01 -3.141236e-08 0
8.395473e-01 -3.028591e-08 0
8.395474e-01 -3.081744e-08 0
8.395474e-01 -3.146403e-08 0
8.395475e-01 -3.108621e-08 0
8.395476e-01 -3.000905e-08 0
8.395476e-01 -3.003379e-08 0
8.395477e-01 -3.323135e-08 0
8.395477e-01 -4.035908e-08 0
8.395478e-01 -5.054602e-08 0
8.395478e-01 -6.253035e-08 0
8.395479e-01 -7.536276e-08 0
8.395479e-01 -8.842529e-08 0
8.395480e-01 -1.014400e-07 0
8.395480e-01 -1.141767e-07 0
8.395480e-01 -1.261516e-07 0
8.395481e-01 -1.368085e-07 0
8.395481e-01 -1.458883e-07 0
8.395482e-01 -1.532955e-07 0
8.395482e-01 -1.588124e-07 0
8.395483e-01 -1.621746e-07 0
8.395483e-01 -1.633818e-07 0
8.395484e-01 -1.627172e-07 0
8.395484e-01 -1.604391e-07 0
8.395485e-01 -1.566210e-07 0
8.395485e-01 -1.514345e-07 0
8.395486e-01 -1.454929e-07 0
8.395486e-01 -1.397063e-07 0
8.395487e-01 -1.347898e-07 0
8.395487e-01 -1.309983e-07 0
8.395488e-01 -1.283091e-07 0
8.395488e-01 -1.267027e-07 0
8.395489e-01 -1.261914e-07 0
8.395490e-01 -1.266851e-07 0
8.395490e-01 -1.279752e-07 0
8.395491e-01 -1.298378e-07 0
8.395491e-01 -1.320697e-07 0
8.395492e-01 -1.344517e-07 0
8.395492e-01 -1.367565e-07 0
8.395493e-01 -1.387974e-07 0
8.395493e-01 -1.404556e-07 0
8.395494e-01 -1.416547e-07 0
8.395495e-01 -1.423893e-07 0
8.395495e-01 -1.427245e-07 0
8.395496e-01 -1.427391e-07 0
8.395496e-01 -1.425119e-07 0
8.395497e-01 -1.421056e-07 0
8.395497e-01 -1.416213e-07 0
8.395498e-01 -1.411687e-07 0
8.395498e-01 -1.407962e-07 0
8.395499e-01 -1.404478e-07 0
8.395499e-01 -1.400392e-07 0
8.395500e-01 -1.394633e-07 0
8.395501e-01 -1.384748e-07 0
8.395501e-01 -1.366534e-07 0
8.395502e-01 -1.306738e-07 0
8.395502e-01 -1.258797e-07 0
9.202622e-01 -3.117027e-07 0
9.202622e-01 -7.497217e-07 0
9.202607e-01 -1.331363e-06 0
9.202609e-01 -1.289485e-06 0
9.202619e-01 -7.760987e-07 0
9.202627e-01 -2.403259e-07 0
9.202626e-01 -3.332548e-08 0
9.202619e-01 -1.406503e-07 0
9.202614e-01 -3.119762e-07 0
9.202614e-01 -3.364177e-07 0
9.202618e-01 -1.931489e-07 0
9.202622e-01 -3.179246e-09 0
9.202623e-01 1.140996e-07 0
9.202621e-01 1.322990e-07 0
9.202619e-01 9.893141e-08 0
9.202619e-01 6.401842e-08 0
9.202620e-01 4.150870e-08 0
9.202621e-01 1.894947e-08 0
9.202621e-01 -1.416788e-08 0
9.202621e-01 -5.174024e-08 0
9.202620e-01 -7.782377e-08 0
9.202621e-01 -8.240772e-08 0
9.202621e-01 -6.827524e-08 0
9.202621e-01 -4.586325e-08 0
9.202622e-01 -2.502614e-08 0
9.202622e-01 -1.069066e-08 0
9.202621e-01 -3.446358e-09 0
9.202621e-01 -2.033474e-09 0
9.202621e-01 -4.494211e-09 0
9.202620e-01 -8.287647e-09 0
9.202620e-01 -1.006602e-08 0
9.202620e-01 -6.129065e-09 0
9.202619e-01 6.857874e-09 0
9.202619e-01 3.059077e-08 0
9.202618e-01 6.340376e-08 0
9.202618e-01 1.000665e-07 0
9.202618e-01 1.332039e-07 0
9.202617e-01 1.560388e-07 0
9.202616e-01 1.658085e-07 0
9.202616e-01 1.659560e-07 0
9.202615e-01 1.651770e-07 0
9.202615e-01 1.730967e-07 0
9.202615e-01 1.946941e-07 0
9.202615e-01 2.268810e-07 0
9.202614e-01 2.597869e-07 0
9.202614e-01 2.825600e-07 0
9.202614e-01 2.904705e-07 0
9.202613e-01 2.887751e-07 0
9.202612e-01 2.902655e-07 0
9.202612e-01 3.071924e-07 0
9.202612e-01 3.422830e-07 0
9.202612e-01 3.851377e-07 0
9.202612e-01 4.176130e-07 0
9.202611e-01 4.257913e-07 0
9.202610e-01 4.105207e-07 0
9.202609e-01 3.880604e-07 0
9.202609e-01 3.788730e-07 0
9.202608e-01 3.920330e-07 0
9.202608e-01 4.174534e-07 0
9.202608e-01 4.330336e-07 0
9.202607e-01 4.219590e-07 0
9.202606e-01 3.863312e-07 0
9.202606e-01 3.453406e-07 0
9.202605e-01 3.190636e-07 0
9.202605e-01 3.113989e-07 0