<?xml version="1.0"?>
<VTKFile type="StructuredGrid">
<StructuredGrid WholeExtent="0 18 0 2 0 0 ">
<Piece Extent="0 18 0 2 0 0 ">
<Points>
<DataArray type="Float64" format="ascii" NumberOfComponents="3">
0.000000e+00 0.000000e+00 0.000000e+00
2.777778e-01 0.000000e+00 0.000000e+00
5.555556e-01 0.000000e+00 0.000000e+00
8.333333e-01 0.000000e+00 0.000000e+00
1.111111e+00 0.000000e+00 0.000000e+00
1.388889e+00 0.000000e+00 0.000000e+00
1.666667e+00 0.000000e+00 0.000000e+00
1.944444e+00 0.000000e+00 0.000000e+00
2.222222e+00 0.000000e+00 0.000000e+00
2.500000e+00 0.000000e+00 0.000000e+00
2.777778e+00 0.000000e+00 0.000000e+00
3.055556e+00 0.000000e+00 0.000000e+00
3.333333e+00 0.000000e+00 0.000000e+00
3.611111e+00 0.000000e+00 0.000000e+00
3.888889e+00 0.000000e+00 0.000000e+00
4.166667e+00 0.000000e+00 0.000000e+00
4.444444e+00 0.000000e+00 0.000000e+00
4.722222e+00 0.000000e+00 0.000000e+00
5.000000e+00 0.000000e+00 0.000000e+00
0.000000e+00 5.000000e-01 0.000000e+00
2.777778e-01 5.000000e-01 0.000000e+00
5.555556e-01 5.000000e-01 0.000000e+00
8.333333e-01 5.000000e-01 0.000000e+00
1.111111e+00 5.000000e-01 0.000000e+00
1.388889e+00 5.000000e-01 0.000000e+00
1.666667e+00 5.000000e-01 0.000000e+00
1.944444e+00 5.000000e-01 0.000000e+00
2.222222e+00 5.000000e-01 0.000000e+00
2.500000e+00 5.000000e-01 0.000000e+00
2.777778e+00 5.000000e-01 0.000000e+00
3.055556e+00 5.000000e-01 0.000000e+00
3.333333e+00 5.000000e-01 0.000000e+00
3.611111e+00 5.000000e-01 0.000000e+00
3.888889e+00 5.000000e-01 0.000000e+00
4.166667e+00 5.000000e-01 0.000000e+00
4.444444e+00 5.000000e-01 0.000000e+00
4.722222e+00 5.000000e-01 0.000000e+00
5.000000e+00 5.000000e-01 0.000000e+00
0.000000e+00 1.000000e+00 0.000000e+00
2.777778e-01 1.000000e+00 0.000000e+00
5.555556e-01 1.000000e+00 0.000000e+00
8.333333e-01 1.000000e+00 0.000000e+00
1.111111e+00 1.000000e+00 0.000000e+00
1.388889e+00 1.000000e+00 0.000000e+00
1.666667e+00 1.000000e+00 0.000000e+00
1.944444e+00 1.000000e+00 0.000000e+00
2.222222e+00 1.000000e+00 0.000000e+00
2.500000e+00 1.000000e+00 0.000000e+00
2.777778e+00 1.000000e+00 0.000000e+00
3.055556e+00 1.000000e+00 0.000000e+00
3.333333e+00 1.000000e+00 0.000000e+00
3.611111e+00 1.000000e+00 0.000000e+00
3.888889e+00 1.000000e+00 0.000000e+00
4.166667e+00 1.000000e+00 0.000000e+00
4.444444e+00 1.000000e+00 0.000000e+00
4.722222e+00 1.000000e+00 0.000000e+00
5.000000e+00 1.000000e+00 0.000000e+00
</DataArray>
</Points>
<PointData>
<DataArray Name="Velocity" type="Float64" format="ascii" NumberOfComponents="3">
0.000000e+00 0.000000e+00 0
0.000000e+00 0.000000e+00 0
0.000000e+00 0.000000e+00 0
0.000000e+00 0.000000e+00 0
0.000000e+00 0.000000e+00 0
0.000000e+00 0.000000e+00 0
0.000000e+00 0.000000e+00 0
-1.276493e-17 0.000000e+00 0
0.000000e+00 0.000000e+00 0
0.000000e+00 0.000000e+00 0
0.000000e+00 0.000000e+00 0
0.000000e+00 0.000000e+00 0
0.000000e+00 0.000000e+00 0
0.000000e+00 0.000000e+00 0
-2.551286e-17 0.000000e+00 0
0.000000e+00 0.000000e+00 0
0.000000e+00 0.000000e+00 0
0.000000e+00 0.000000e+00 0
0.000000e+00 0.000000e+00 0
9.712294e-01 -2.133287e-06 0
9.712294e-01 1.032140e-06 0
9.712223e-01 1.075318e-05 0
9.712205e-01 1.759858e-05 0
9.712250e-01 9.899966e-06 0
9.712294e-01 -5.744556e-06 0
9.712299e-01 -1.470686e-05 0
9.712280e-01 -1.238310e-05 0
9.712264e-01 -5.222331e-06 0
9.712259e-01 -1.046933e-06 0
9.712258e-01 -1.854633e-06 0
9.712259e-01 -4.787842e-06 0
9.712261e-01 -6.679287e-06 0
9.712262e-01 -6.530146e-06 0
9.712262e-01 -4.916986e-06 0
9.712263e-01 -2.879855e-06 0
9.712261e-01 -1.126879e-06 0
9.712262e-01 -1.618334e-08 0
9.712262e-01 3.251588e-07 0
0.000000e+00 0.000000e+00 0
0.000000e+00 0.000000e+00 0
0.000000e+00 0.000000e+00 0
0.000000e+00 0.000000e+00 0
0.000000e+00 0.000000e+00 0
0.000000e+00 0.000000e+00 0
0.000000e+00 0.000000e+00 0
1.279113e-17 0.000000e+00 0
0.000000e+00 0.000000e+00 0
0.000000e+00 0.000000e+00 0
0.000000e+00 0.000000e+00 0
0.000000e+00 0.000000e+00 0
0.000000e+00 0.000000e+00 0
0.000000e+00 0.000000e+00 0
2.559947e-17 0.000000e+00 0
0.000000e+00 0.000000e+00 0
0.000000e+00 0.000000e+00 0
0.000000e+00 0.000000e+00 0
0.000000e+00 0.000000e+00 0
</DataArray>
<DataArray Name="Pressure" type="Float64" format="ascii">
9.930338e-02 9.444270e-02 8.892382e-02 8.341750e-02 7.786663e-02 7.226496e-02 6.665744e-02 6.107909e-02 5.552891e-02 4.998780e-02 4.444267e-02 3.889170e-02 3.333699e-02 2.778023e-02 2.222307e-02 1.666632e-02 1.111033e-02 5.555074e-03 6.943826e-04 
1.000000e-01 9.443096e-02 8.887645e-02 8.334000e-02 7.780275e-02 7.224675e-02 6.667733e-02 6.110904e-02 5.554862e-02 4.999386e-02 4.444080e-02 3.888747e-02 3.333316e-02 2.777793e-02 2.222240e-02 1.666668e-02 1.111090e-02 5.555392e-03 1.994932e-17 
9.930345e-02 9.441922e-02 8.882907e-02 8.326250e-02 7.773888e-02 7.222854e-02 6.669723e-02 6.113900e-02 5.556832e-02 4.999992e-02 4.443893e-02 3.888325e-02 3.332933e-02 2.777562e-02 2.222174e-02 1.666705e-02 1.111148e-02 5.555711e-03 6.944650e-04 
</DataArray>
<DataArray Name="Stream" type="Float64" format="ascii">
0.000000e+00 0.000000e+00 0.000000e+00 0.000000e+00 0.000000e+00 0.000000e+00 0.000000e+00 0.000000e+00 0.000000e+00 0.000000e+00 0.000000e+00 0.000000e+00 0.000000e+00 0.000000e+00 0.000000e+00 0.000000e+00 0.000000e+00 0.000000e+00 0.000000e+00 
0.000000e+00 4.856187e-01 4.856122e-01 4.856173e-01 4.856258e-01 4.856305e-01 4.856305e-01 4.856289e-01 4.856280e-01 4.856280e-01 4.856286e-01 4.856302e-01 4.856325e-01 4.856348e-01 4.856364e-01 4.856375e-01 4.856378e-01 4.856379e-01 4.856379e-01 
0.000000e+00 9.712294e-01 9.712223e-01 9.712205e-01 9.712250e-01 9.712294e-01 9.712299e-01 9.712280e-01 9.712264e-01 9.712259e-01 9.712258e-01 9.712259e-01 9.712261e-01 9.712262e-01 9.712262e-01 9.712263e-01 9.712261e-01 9.712262e-01 9.712262e-01 
</DataArray>
<DataArray Name="Vorticity" type="Float64" format="ascii">
3.884949e+00 3.884949e+00 3.884897e+00 3.884938e+00 3.885006e+00 3.885044e+00 3.885044e+00 3.885031e+00 3.885024e+00 3.885024e+00 3.885029e+00 3.885041e+00 3.885060e+00 3.885078e+00 3.885092e+00 3.885100e+00 3.885102e+00 3.885103e+00 3.885103e+00 
-3.162982e-05 -5.442089e-05 -5.534739e-05 -5.816646e-05 -4.865759e-05 -7.135134e-05 -1.152511e-04 -1.454478e-04 -1.434371e-04 -1.246572e-04 -1.153663e-04 -1.270434e-04 -1.523740e-04 -1.776660e-04 -1.945448e-04 -2.021205e-04 -2.032532e-04 -2.007536e-04 -1.982959e-04 
-3.884886e+00 -3.884886e+00 -3.884881e+00 -3.884826e+00 -3.884794e+00 -3.884791e+00 -3.884795e+00 -3.884793e+00 -3.884788e+00 -3.884784e+00 -3.884777e+00 -3.884766e+00 -3.884749e+00 -3.884731e+00 -3.884718e+00 -3.884710e+00 -3.884707e+00 -3.884706e+00 -3.884706e+00 
</DataArray>
</PointData>
</Piece>
</StructuredGrid>
</VTKFile>
