<?xml version="1.0"?>
<VTKFile type="StructuredGrid">
<StructuredGrid WholeExtent="0 318 0 62 0 0 ">
<Piece Extent="0 318 0 62 0 0 ">
<Points>
<DataArray type="Float64" format="ascii" NumberOfComponents="3">
0.000000e+00 0.000000e+00 0.000000e+00
1.572327e-02 0.000000e+00 0.000000e+00
3.144654e-02 0.000000e+00 0.000000e+00
4.716981e-02 0.000000e+00 0.000000e+00
6.289308e-02 0.000000e+00 0.000000e+00
7.861635e-02 0.000000e+00 0.000000e+00
9.433962e-02 0.000000e+00 0.000000e+00
1.100629e-01 0.000000e+00 0.000000e+00
1.257862e-01 0.000000e+00 0.000000e+00
1.415094e-01 0.000000e+00 0.000000e+00
1.572327e-01 0.000000e+00 0.000000e+00
1.729560e-01 0.000000e+00 0.000000e+00
1.886792e-01 0.000000e+00 0.000000e+00
2.044025e-01 0.000000e+00 0.000000e+00
2.201258e-01 0.000000e+00 0.000000e+00
2.358491e-01 0.000000e+00 0.000000e+00
2.515723e-01 0.000000e+00 0.000000e+00
2.672956e-01 0.000000e+00 0.000000e+00
2.830189e-01 0.000000e+00 0.000000e+00
2.987421e-01 0.000000e+00 0.000000e+00
3.144654e-01 0.000000e+00 0.000000e+00
3.301887e-01 0.000000e+00 0.000000e+00
3.459119e-01 0.000000e+00 0.000000e+00
3.616352e-01 0.000000e+00 0.000000e+00
3.773585e-01 0.000000e+00 0.000000e+00
3.930818e-01 0.000000e+00 0.000000e+00
4.088050e-01 0.000000e+00 0.000000e+00
4.245283e-01 0.000000e+00 0.000000e+00
4.402516e-01 0.000000e+00 0.000000e+00
4.559748e-01 0.000000e+00 0.000000e+00
4.716981e-01 0.000000e+00 0.000000e+00
4.874214e-01 0.000000e+00 0.000000e+00
5.031447e-01 0.000000e+00 0.000000e+00
5.188679e-01 0.000000e+00 0.000000e+00
5.345912e-01 0.000000e+00 0.000000e+00
5.503145e-01 0.000000e+00 0.000000e+00
5.660377e-01 0.000000e+00 0.000000e+00
5.817610e-01 0.000000e+00 0.000000e+00
5.974843e-01 0.000000e+00 0.000000e+00
6.132075e-01 0.000000e+00 0.000000e+00
6.289308e-01 0.000000e+00 0.000000e+00
6.446541e-01 0.000000e+00 0.000000e+00
6.603774e-01 0.000000e+00 0.000000e+00
6.761006e-01 0.000000e+00 0.000000e+00
6.918239e-01 0.000000e+00 0.000000e+00
7.075472e-01 0.000000e+00 0.000000e+00
7.232704e-01 0.000000e+00 0.000000e+00
7.389937e-01 0.000000e+00 0.000000e+00
7.547170e-01 0.000000e+00 0.000000e+00
7.704403e-01 0.000000e+00 0.000000e+00
7.861635e-01 0.000000e+00 0.000000e+00
8.018868e-01 0.000000e+00 0.000000e+00
8.176101e-01 0.000000e+00 0.000000e+00
8.333333e-01 0.000000e+00 0.000000e+00
8.490566e-01 0.000000e+00 0.000000e+00
8.647799e-01 0.000000e+00 0.000000e+00
8.805031e-01 0.000000e+00 0.000000e+00
8.962264e-01 0.000000e+00 0.000000e+00
9.119497e-01 0.000000e+00 0.000000e+00
9.276730e-01 0.000000e+00 0.000000e+00
9.433962e-01 0.000000e+00 0.000000e+00
9.591195e-01 0.000000e+00 0.000000e+00
9.748428e-01 0.000000e+00 0.000000e+00
9.905660e-01 0.000000e+00 0.000000e+00
1.006289e+00 0.000000e+00 0.000000e+00
1.022013e+00 0.000000e+00 0.000000e+00
1.037736e+00 0.000000e+00 0.000000e+00
1.053459e+00 0.000000e+00 0.000000e+00
1.069182e+00 0.000000e+00 0.000000e+00
1.084906e+00 0.000000e+00 0.000000e+00
1.100629e+00 0.000000e+00 0.000000e+00
1.116352e+00 0.000000e+00 0.000000e+00
1.132075e+00 0.000000e+00 0.000000e+00
1.147799e+00 0.000000e+00 0.000000e+00
1.163522e+00 0.000000e+00 0.000000e+00
1.179245e+00 0.000000e+00 0.000000e+00
1.194969e+00 0.000000e+00 0.000000e+00
1.210692e+00 0.000000e+00 0.000000e+00
1.226415e+00 0.000000e+00 0.000000e+00
1.242138e+00 0.000000e+00 0.000000e+00
1.257862e+00 0.000000e+00 0.000000e+00
1.273585e+00 0.000000e+00 0.000000e+00
1.289308e+00 0.000000e+00 0.000000e+00
1.305031e+00 0.000000e+00 0.000000e+00
1.320755e+00 0.000000e+00 0.000000e+00
1.336478e+00 0.000000e+00 0.000000e+00
1.352201e+00 0.000000e+00 0.000000e+00
1.367925e+00 0.000000e+00 0.000000e+00
1.383648e+00 0.000000e+00 0.000000e+00
1.399371e+00 0.000000e+00 0.000000e+00
1.415094e+00 0.000000e+00 0.000000e+00
1.430818e+00 0.000000e+00 0.000000e+00
1.446541e+00 0.000000e+00 0.000000e+00
1.462264e+00 0.000000e+00 0.000000e+00
1.477987e+00 0.000000e+00 0.000000e+00
1.493711e+00 0.000000e+00 0.000000e+00
1.509434e+00 0.000000e+00 0.000000e+00
1.525157e+00 0.000000e+00 0.000000e+00
1.540881e+00 0.000000e+00 0.000000e+00
1.556604e+00 0.000000e+00 0.000000e+00
1.572327e+00 0.000000e+00 0.000000e+00
1.588050e+00 0.000000e+00 0.000000e+00
1.603774e+00 0.000000e+00 0.000000e+00
1.619497e+00 0.000000e+00 0.000000e+00
1.635220e+00 0.000000e+00 0.000000e+00
1.650943e+00 0.000000e+00 0.000000e+00
1.666667e+00 0.000000e+00 0.000000e+00
1.682390e+00 0.000000e+00 0.000000e+00
1.698113e+00 0.000000e+00 0.000000e+00
1.713836e+00 0.000000e+00 0.000000e+00
1.729560e+00 0.000000e+00 0.000000e+00
1.745283e+00 0.000000e+00 0.000000e+00
1.761006e+00 0.000000e+00 0.000000e+00
1.776730e+00 0.000000e+00 0.000000e+00
1.792453e+00 0.000000e+00 0.000000e+00
1.808176e+00 0.000000e+00 0.000000e+00
1.823899e+00 0.000000e+00 0.000000e+00
1.839623e+00 0.000000e+00 0.000000e+00
1.855346e+00 0.000000e+00 0.000000e+00
1.871069e+00 0.000000e+00 0.000000e+00
1.886792e+00 0.000000e+00 0.000000e+00
1.902516e+00 0.000000e+00 0.000000e+00
1.918239e+00 0.000000e+00 0.000000e+00
1.933962e+00 0.000000e+00 0.000000e+00
1.949686e+00 0.000000e+00 0.000000e+00
1.965409e+00 0.000000e+00 0.000000e+00
1.981132e+00 0.000000e+00 0.000000e+00
1.996855e+00 0.000000e+00 0.000000e+00
2.012579e+00 0.000000e+00 0.000000e+00
2.028302e+00 0.000000e+00 0.000000e+00
2.044025e+00 0.000000e+00 0.000000e+00
2.059748e+00 0.000000e+00 0.000000e+00
2.075472e+00 0.000000e+00 0.000000e+00
2.091195e+00 0.000000e+00 0.000000e+00
2.106918e+00 0.000000e+00 0.000000e+00
2.122642e+00 0.000000e+00 0.000000e+00
2.138365e+00 0.000000e+00 0.000000e+00
2.154088e+00 0.000000e+00 0.000000e+00
2.169811e+00 0.000000e+00 0.000000e+00
2.185535e+00 0.000000e+00 0.000000e+00
2.201258e+00 0.000000e+00 0.000000e+00
2.216981e+00 0.000000e+00 0.000000e+00
2.232704e+00 0.000000e+00 0.000000e+00
2.248428e+00 0.000000e+00 0.000000e+00
2.264151e+00 0.000000e+00 0.000000e+00
2.279874e+00 0.000000e+00 0.000000e+00
2.295597e+00 0.000000e+00 0.000000e+00
2.311321e+00 0.000000e+00 0.000000e+00
2.327044e+00 0.000000e+00 0.000000e+00
2.342767e+00 0.000000e+00 0.000000e+00
2.358491e+00 0.000000e+00 0.000000e+00
2.374214e+00 0.000000e+00 0.000000e+00
2.389937e+00 0.000000e+00 0.000000e+00
2.405660e+00 0.000000e+00 0.000000e+00
2.421384e+00 0.000000e+00 0.000000e+00
2.437107e+00 0.000000e+00 0.000000e+00
2.452830e+00 0.000000e+00 0.000000e+00
2.468553e+00 0.000000e+00 0.000000e+00
2.484277e+00 0.000000e+00 0.000000e+00
2.500000e+00 0.000000e+00 0.000000e+00
2.515723e+00 0.000000e+00 0.000000e+00
2.531447e+00 0.000000e+00 0.000000e+00
2.547170e+00 0.000000e+00 0.000000e+00
2.562893e+00 0.000000e+00 0.000000e+00
2.578616e+00 0.000000e+00 0.000000e+00
2.594340e+00 0.000000e+00 0.000000e+00
2.610063e+00 0.000000e+00 0.000000e+00
2.625786e+00 0.000000e+00 0.000000e+00
2.641509e+00 0.000000e+00 0.000000e+00
2.657233e+00 0.000000e+00 0.000000e+00
2.672956e+00 0.000000e+00 0.000000e+00
2.688679e+00 0.000000e+00 0.000000e+00
2.704403e+00 0.000000e+00 0.000000e+00
2.720126e+00 0.000000e+00 0.000000e+00
2.735849e+00 0.000000e+00 0.000000e+00
2.751572e+00 0.000000e+00 0.000000e+00
2.767296e+00 0.000000e+00 0.000000e+00
2.783019e+00 0.000000e+00 0.000000e+00
2.798742e+00 0.000000e+00 0.000000e+00
2.814465e+00 0.000000e+00 0.000000e+00
2.830189e+00 0.000000e+00 0.000000e+00
2.845912e+00 0.000000e+00 0.000000e+00
2.861635e+00 0.000000e+00 0.000000e+00
2.877358e+00 0.000000e+00 0.000000e+00
2.893082e+00 0.000000e+00 0.000000e+00
2.908805e+00 0.000000e+00 0.000000e+00
2.924528e+00 0.000000e+00 0.000000e+00
2.940252e+00 0.000000e+00 0.000000e+00
2.955975e+00 0.000000e+00 0.000000e+00
2.971698e+00 0.000000e+00 0.000000e+00
2.987421e+00 0.000000e+00 0.000000e+00
3.003145e+00 0.000000e+00 0.000000e+00
3.018868e+00 0.000000e+00 0.000000e+00
3.034591e+00 0.000000e+00 0.000000e+00
3.050314e+00 0.000000e+00 0.000000e+00
3.066038e+00 0.000000e+00 0.000000e+00
3.081761e+00 0.000000e+00 0.000000e+00
3.097484e+00 0.000000e+00 0.000000e+00
3.113208e+00 0.000000e+00 0.000000e+00
3.128931e+00 0.000000e+00 0.000000e+00
3.144654e+00 0.000000e+00 0.000000e+00
3.160377e+00 0.000000e+00 0.000000e+00
3.176101e+00 0.000000e+00 0.000000e+00
3.191824e+00 0.000000e+00 0.000000e+00
3.207547e+00 0.000000e+00 0.000000e+00
3.223270e+00 0.000000e+00 0.000000e+00
3.238994e+00 0.000000e+00 0.000000e+00
3.254717e+00 0.000000e+00 0.000000e+00
3.270440e+00 0.000000e+00 0.000000e+00
3.286164e+00 0.000000e+00 0.000000e+00
3.301887e+00 0.000000e+00 0.000000e+00
3.317610e+00 0.000000e+00 0.000000e+00
3.333333e+00 0.000000e+00 0.000000e+00
3.349057e+00 0.000000e+00 0.000000e+00
3.364780e+00 0.000000e+00 0.000000e+00
3.380503e+00 0.000000e+00 0.000000e+00
3.396226e+00 0.000000e+00 0.000000e+00
3.411950e+00 0.000000e+00 0.000000e+00
3.427673e+00 0.000000e+00 0.000000e+00
3.443396e+00 0.000000e+00 0.000000e+00
3.459119e+00 0.000000e+00 0.000000e+00
3.474843e+00 0.000000e+00 0.000000e+00
3.490566e+00 0.000000e+00 0.000000e+00
3.506289e+00 0.000000e+00 0.000000e+00
3.522013e+00 0.000000e+00 0.000000e+00
3.537736e+00 0.000000e+00 0.000000e+00
3.553459e+00 0.000000e+00 0.000000e+00
3.569182e+00 0.000000e+00 0.000000e+00
3.584906e+00 0.000000e+00 0.000000e+00
3.600629e+00 0.000000e+00 0.000000e+00
3.616352e+00 0.000000e+00 0.000000e+00
3.632075e+00 0.000000e+00 0.000000e+00
3.647799e+00 0.000000e+00 0.000000e+00
3.663522e+00 0.000000e+00 0.000000e+00
3.679245e+00 0.000000e+00 0.000000e+00
3.694969e+00 0.000000e+00 0.000000e+00
3.710692e+00 0.000000e+00 0.000000e+00
3.726415e+00 0.000000e+00 0.000000e+00
3.742138e+00 0.000000e+00 0.000000e+00
3.757862e+00 0.000000e+00 0.000000e+00
3.773585e+00 0.000000e+00 0.000000e+00
3.789308e+00 0.000000e+00 0.000000e+00
3.805031e+00 0.000000e+00 0.000000e+00
3.820755e+00 0.000000e+00 0.000000e+00
3.836478e+00 0.000000e+00 0.000000e+00
3.852201e+00 0.000000e+00 0.000000e+00
3.867925e+00 0.000000e+00 0.000000e+00
3.883648e+00 0.000000e+00 0.000000e+00
3.899371e+00 0.000000e+00 0.000000e+00
3.915094e+00 0.000000e+00 0.000000e+00
3.930818e+00 0.000000e+00 0.000000e+00
[...]
<PointData>
<DataArray Name="Velocity" type="Float64" format="ascii" NumberOfComponents="3">
0.000000e+00 0.000000e+00 0
0.000000e+00 0.000000e+00 0
0.000000e+00 0.000000e+00 0
5.980773e-19 0.000000e+00 0
0.000000e+00 0.000000e+00 0
0.000000e+00 0.000000e+00 0
1.196469e-18 0.000000e+00 0
0.000000e+00 0.000000e+00 0
0.000000e+00 0.000000e+00 0
0.000000e+00 0.000000e+00 0
0.000000e+00 0.000000e+00 0
0.000000e+00 0.000000e+00 0
2.392428e-18 0.000000e+00 0
0.000000e+00 0.000000e+00 0
0.000000e+00 0.000000e+00 0
0.000000e+00 0.000000e+00 0
0.000000e+00 0.000000e+00 0
0.000000e+00 0.000000e+00 0
0.000000e+00 0.000000e+00 0
0.000000e+00 0.000000e+00 0
0.000000e+00 0.000000e+00 0
0.000000e+00 0.000000e+00 0
0.000000e+00 0.000000e+00 0
0.000000e+00 0.000000e+00 0
4.784410e-18 0.000000e+00 0
0.000000e+00 0.000000e+00 0
0.000000e+00 0.000000e+00 0
0.000000e+00 0.000000e+00 0
0.000000e+00 0.000000e+00 0
0.000000e+00 0.000000e+00 0
0.000000e+00 0.000000e+00 0
0.000000e+00 0.000000e+00 0
0.000000e+00 0.000000e+00 0
0.000000e+00 0.000000e+00 0
0.000000e+00 0.000000e+00 0
0.000000e+00 0.000000e+00 0
0.000000e+00 0.000000e+00 0
0.000000e+00 0.000000e+00 0
0.000000e+00 0.000000e+00 0
0.000000e+00 0.000000e+00 0
0.000000e+00 0.000000e+00 0
0.000000e+00 0.000000e+00 0
0.000000e+00 0.000000e+00 0
0.000000e+00 0.000000e+00 0
0.000000e+00 0.000000e+00 0
0.000000e+00 0.000000e+00 0
0.000000e+00 0.000000e+00 0
0.000000e+00 0.000000e+00 0
-4.309829e-18 0.000000e+00 0
0.000000e+00 0.000000e+00 0
0.000000e+00 0.000000e+00 0
0.000000e+00 0.000000e+00 0
0.000000e+00 0.000000e+00 0
0.000000e+00 0.000000e+00 0
0.000000e+00 0.000000e+00 0
0.000000e+00 0.000000e+00 0
0.000000e+00 0.000000e+00 0
0.000000e+00 0.000000e+00 0
0.000000e+00 0.000000e+00 0
0.000000e+00 0.000000e+00 0
0.000000e+00 0.000000e+00 0
0.000000e+00 0.000000e+00 0
0.000000e+00 0.000000e+00 0
0.000000e+00 0.000000e+00 0
0.000000e+00 0.000000e+00 0
0.000000e+00 0.000000e+00 0
0.000000e+00 0.000000e+00 0
0.000000e+00 0.000000e+00 0
0.000000e+00 0.000000e+00 0
0.000000e+00 0.000000e+00 0
0.000000e+00 0.000000e+00 0
0.000000e+00 0.000000e+00 0
0.000000e+00 0.000000e+00 0
0.000000e+00 0.000000e+00 0
0.000000e+00 0.000000e+00 0
0.000000e+00 0.000000e+00 0
0.000000e+00 0.000000e+00 0
0.000000e+00 0.000000e+00 0
0.000000e+00 0.000000e+00 0
0.000000e+00 0.000000e+00 0
0.000000e+00 0.000000e+00 0
0.000000e+00 0.000000e+00 0
0.000000e+00 0.000000e+00 0
0.000000e+00 0.000000e+00 0
0.000000e+00 0.000000e+00 0
0.000000e+00 0.000000e+00 0
0.000000e+00 0.000000e+00 0
0.000000e+00 0.000000e+00 0
0.000000e+00 0.000000e+00 0
0.000000e+00 0.000000e+00 0
0.000000e+00 0.000000e+00 0
0.000000e+00 0.000000e+00 0
0.000000e+00 0.000000e+00 0
0.000000e+00 0.000000e+00 0
0.000000e+00 0.000000e+00 0
0.000000e+00 0.000000e+00 0
0.000000e+00 0.000000e+00 0
0.000000e+00 0.000000e+00 0
0.000000e+00 0.000000e+00 0
0.000000e+00 0.000000e+00 0
0.000000e+00 0.000000e+00 0
0.000000e+00 0.000000e+00 0
0.000000e+00 0.000000e+00 0
0.000000e+00 0.000000e+00 0
0.000000e+00 0.000000e+00 0
0.000000e+00 0.000000e+00 0
0.000000e+00 0.000000e+00 0
0.000000e+00 0.000000e+00 0
0.000000e+00 0.000000e+00 0
0.000000e+00 0.000000e+00 0
0.000000e+00 0.000000e+00 0
0.000000e+00 0.000000e+00 0
0.000000e+00 0.000000e+00 0
0.000000e+00 0.000000e+00 0
0.000000e+00 0.000000e+00 0
0.000000e+00 0.000000e+00 0
0.000000e+00 0.000000e+00 0
0.000000e+00 0.000000e+00 0
0.000000e+00 0.000000e+00 0
0.000000e+00 0.000000e+00 0
0.000000e+00 0.000000e+00 0
0.000000e+00 0.000000e+00 0
0.000000e+00 0.000000e+00 0
0.000000e+00 0.000000e+00 0
0.000000e+00 0.000000e+00 0
0.000000e+00 0.000000e+00 0
0.000000e+00 0.000000e+00 0
0.000000e+00 0.000000e+00 0
0.000000e+00 0.000000e+00 0
0.000000e+00 0.000000e+00 0
-3.353687e-18 0.000000e+00 0
0.000000e+00 0.000000e+00 0
0.000000e+00 0.000000e+00 0
0.000000e+00 0.000000e+00 0
-3.353094e-18 0.000000e+00 0
0.000000e+00 0.000000e+00 0
0.000000e+00 0.000000e+00 0
0.000000e+00 0.000000e+00 0
-3.352526e-18 0.000000e+00 0
0.000000e+00 0.000000e+00 0
0.000000e+00 0.000000e+00 0
0.000000e+00 0.000000e+00 0
-3.351812e-18 0.000000e+00 0
0.000000e+00 0.000000e+00 0
0.000000e+00 0.000000e+00 0
0.000000e+00 0.000000e+00 0
-3.351101e-18 0.000000e+00 0
0.000000e+00 0.000000e+00 0
0.000000e+00 0.000000e+00 0
0.000000e+00 0.000000e+00 0
-3.350357e-18 0.000000e+00 0
0.000000e+00 0.000000e+00 0
0.000000e+00 0.000000e+00 0
0.000000e+00 0.000000e+00 0
-3.349635e-18 0.000000e+00 0
0.000000e+00 0.000000e+00 0
0.000000e+00 0.000000e+00 0
0.000000e+00 0.000000e+00 0
-3.348975e-18 0.000000e+00 0
0.000000e+00 0.000000e+00 0
0.000000e+00 0.000000e+00 0
-3.348428e-18 0.000000e+00 0
0.000000e+00 0.000000e+00 0
0.000000e+00 0.000000e+00 0
0.000000e+00 0.000000e+00 0
-3.347881e-18 0.000000e+00 0
0.000000e+00 0.000000e+00 0
0.000000e+00 0.000000e+00 0
0.000000e+00 0.000000e+00 0
-3.347212e-18 0.000000e+00 0
0.000000e+00 0.000000e+00 0
0.000000e+00 0.000000e+00 0
0.000000e+00 0.000000e+00 0
-3.346687e-18 0.000000e+00 0
0.000000e+00 0.000000e+00 0
0.000000e+00 0.000000e+00 0
0.000000e+00 0.000000e+00 0
-3.346083e-18 0.000000e+00 0
0.000000e+00 0.000000e+00 0
0.000000e+00 0.000000e+00 0
0.000000e+00 0.000000e+00 0
-3.345566e-18 0.000000e+00 0
0.000000e+00 0.000000e+00 0
0.000000e+00 0.000000e+00 0
0.000000e+00 0.000000e+00 0
-3.345006e-18 0.000000e+00 0
0.000000e+00 0.000000e+00 0
0.000000e+00 0.000000e+00 0
0.000000e+00 0.000000e+00 0
-3.344499e-18 0.000000e+00 0
0.000000e+00 0.000000e+00 0
0.000000e+00 0.000000e+00 0
-3.344106e-18 0.000000e+00 0
0.000000e+00 0.000000e+00 0
0.000000e+00 0.000000e+00 0
0.000000e+00 0.000000e+00 0
-3.343612e-18 0.000000e+00 0
0.000000e+00 0.000000e+00 0
0.000000e+00 0.000000e+00 0
0.000000e+00 0.000000e+00 0
-3.343125e-18 0.000000e+00 0
0.000000e+00 0.000000e+00 0
0.000000e+00 0.000000e+00 0
0.000000e+00 0.000000e+00 0
-3.342661e-18 0.000000e+00 0
0.000000e+00 0.000000e+00 0
0.000000e+00 0.000000e+00 0
0.000000e+00 0.000000e+00 0
-3.342204e-18 0.000000e+00 0
0.000000e+00 0.000000e+00 0
0.000000e+00 0.000000e+00 0
0.000000e+00 0.000000e+00 0
-3.341767e-18 0.000000e+00 0
0.000000e+00 0.000000e+00 0
0.000000e+00 0.000000e+00 0
0.000000e+00 0.000000e+00 0
-3.341336e-18 0.000000e+00 0
0.000000e+00 0.000000e+00 0
0.000000e+00 0.000000e+00 0
0.000000e+00 0.000000e+00 0
-3.340918e-18 0.000000e+00 0
0.000000e+00 0.000000e+00 0
0.000000e+00 0.000000e+00 0
0.000000e+00 0.000000e+00 0
-3.340508e-18 0.000000e+00 0
0.000000e+00 0.000000e+00 0
0.000000e+00 0.000000e+00 0
-3.340208e-18 0.000000e+00 0
0.000000e+00 0.000000e+00 0
0.000000e+00 0.000000e+00 0
0.000000e+00 0.000000e+00 0
-3.339815e-18 0.000000e+00 0
0.000000e+00 0.000000e+00 0
0.000000e+00 0.000000e+00 0
0.000000e+00 0.000000e+00 0
-3.339437e-18 0.000000e+00 0
0.000000e+00 0.000000e+00 0
0.000000e+00 0.000000e+00 0
0.000000e+00 0.000000e+00 0
-3.339073e-18 0.000000e+00 0
0.000000e+00 0.000000e+00 0
0.000000e+00 0.000000e+00 0
0.000000e+00 0.000000e+00 0
-3.338725e-18 0.000000e+00 0
0.000000e+00 0.000000e+00 0
0.000000e+00 0.000000e+00 0
0.000000e+00 0.000000e+00 0
-3.338396e-18 0.000000e+00 0
0.000000e+00 0.000000e+00 0
0.000000e+00 0.000000e+00 0
0.000000e+00 0.000000e+00 0
-3.338088e-18 0.000000e+00 0
0.000000e+00 0.000000e+00 0
0.000000e+00 0.000000e+00 0
0.000000e+00 0.000000e+00 0
0.000000e+00 0.000000e+00 0
0.000000e+00 0.000000e+00 0
0.000000e+00 0.000000e+00 0
0.000000e+00 0.000000e+00 0
0.000000e+00 0.000000e+00 0
0.000000e+00 0.000000e+00 0
0.000000e+00 0.000000e+00 0
0.000000e+00 0.000000e+00 0
0.000000e+00 0.000000e+00 0
0.000000e+00 0.000000e+00 0
0.000000e+00 0.000000e+00 0
0.000000e+00 0.000000e+00 0
0.000000e+00 0.000000e+00 0
0.000000e+00 0.000000e+00 0
0.000000e+00 0.000000e+00 0
0.000000e+00 0.000000e+00 0
0.000000e+00 0.000000e+00 0
0.000000e+00 0.000000e+00 0
0.000000e+00 0.000000e+00 0
0.000000e+00 0.000000e+00 0
0.000000e+00 0.000000e+00 0
0.000000e+00 0.000000e+00 0
0.000000e+00 0.000000e+00 0
0.000000e+00 0.000000e+00 0
0.000000e+00 0.000000e+00 0
0.000000e+00 0.000000e+00 0
0.000000e+00 0.000000e+00 0
0.000000e+00 0.000000e+00 0
0.000000e+00 0.000000e+00 0
0.000000e+00 0.000000e+00 0
0.000000e+00 0.000000e+00 0
0.000000e+00 0.000000e+00 0
0.000000e+00 0.000000e+00 0
0.000000e+00 0.000000e+00 0
0.000000e+00 0.000000e+00 0
0.000000e+00 0.000000e+00 0
0.000000e+00 0.000000e+00 0
0.000000e+00 0.000000e+00 0
0.000000e+00 0.000000e+00 0
0.000000e+00 0.000000e+00 0
0.000000e+00 0.000000e+00 0
0.000000e+00 0.000000e+00 0
0.000000e+00 0.000000e+00 0
0.000000e+00 0.000000e+00 0
0.000000e+00 0.000000e+00 0
0.000000e+00 0.000000e+00 0
0.000000e+00 0.000000e+00 0
0.000000e+00 0.000000e+00 0
0.000000e+00 0.000000e+00 0
0.000000e+00 0.000000e+00 0
0.000000e+00 0.000000e+00 0
0.000000e+00 0.000000e+00 0
0.000000e+00 0.000000e+00 0
0.000000e+00 0.000000e+00 0
0.000000e+00 0.000000e+00 0
0.000000e+00 0.000000e+00 0
0.000000e+00 0.000000e+00 0
0.000000e+00 0.000000e+00 0
0.000000e+00 0.000000e+00 0
0.000000e+00 0.000000e+00 0
0.000000e+00 0.000000e+00 0
0.000000e+00 0.000000e+00 0
0.000000e+00 0.000000e+00 0
0.000000e+00 0.000000e+00 0
2.310596e-01 -2.113462e-07 0
2.310596e-01 -4.569822e-07 0
2.310591e-01 -8.091571e-07 0
2.310590e-01 -8.664650e-07 0
2.310592e-01 -6.637047e-07 0
2.310595e-01 -3.476609e-07 0
2.310597e-01 -9.494213e-08 0
2.310597e-01 -7.200280e-09 0
2.310595e-01 -6.211296e-08 0
2.310593e-01 -1.616752e-07 0
2.310591e-01 -2.129382e-07 0
2.310591e-01 -1.780114e-07 0
2.310592e-01 -8.234574e-08 0
2.310593e-01 1.720020e-08 0
2.310593e-01 7.634233e-08 0
2.310593e-01 8.678805e-08 0
2.310592e-01 6.653304e-08 0
2.310592e-01 4.438679e-08 0
2.310592e-01 4.103898e-08 0
2.310592e-01 5.264497e-08 0
2.310592e-01 6.251185e-08 0
2.310592e-01 6.086384e-08 0
2.310591e-01 4.992989e-08 0
2.310591e-01 3.895979e-08 0
2.310591e-01 3.615402e-08 0
2.310591e-01 4.502625e-08 0
2.310591e-01 5.984623e-08 0
2.310591e-01 6.653834e-08 0
2.310591e-01 5.651093e-08 0
2.310591e-01 3.473843e-08 0
2.310590e-01 1.263702e-08 0
2.310590e-01 -8.991105e-11 0
2.310590e-01 1.678012e-09 0
2.310590e-01 1.597848e-08 0
2.310590e-01 3.330873e-08 0
2.310590e-01 4.274166e-08 0
2.310590e-01 3.967208e-08 0
2.310590e-01 2.707670e-08 0
2.310590e-01 1.161444e-08 0
2.310590e-01 9.465429e-10 0
2.310590e-01 5.199095e-10 0
2.310590e-01 8.921510e-09 0
2.310590e-01 1.928477e-08 0
2.310590e-01 2.613451e-08 0
2.310590e-01 2.810070e-08 0
2.310590e-01 2.542619e-08 0
2.310590e-01 1.955672e-08 0
2.310590e-01 1.449176e-08 0
2.310590e-01 1.378649e-08 0
2.310590e-01 1.659119e-08 0
2.310590e-01 1.959648e-08 0
2.310590e-01 2.121932e-08 0
2.310590e-01 2.154544e-08 0
2.310590e-01 2.041994e-08 0
2.310590e-01 1.816618e-08 0
2.310590e-01 1.652606e-08 0
2.310590e-01 1.677596e-08 0
2.310590e-01 1.812378e-08 0
2.310590e-01 1.923139e-08 0
2.310590e-01 1.971059e-08 0
2.310590e-01 1.937544e-08 0
2.310590e-01 1.790566e-08 0
2.310590e-01 1.573125e-08 0
2.310590e-01 1.405432e-08 0
2.310590e-01 1.378413e-08 0
2.310590e-01 1.489296e-08 0
2.310590e-01 1.675926e-08 0
2.310590e-01 1.863104e-08 0
2.310590e-01 1.966548e-08 0
2.310591e-01 1.917492e-08 0
2.310591e-01 1.711308e-08 0
2.310591e-01 1.413289e-08 0
2.310591e-01 1.133087e-08 0
2.310591e-01 9.758728e-09 0
2.310591e-01 9.850686e-09 0
2.310591e-01 1.129618e-08 0
2.310591e-01 1.327682e-08 0
2.310591e-01 1.476714e-08 0
2.310592e-01 1.492022e-08 0
2.310592e-01 1.357051e-08 0
2.310592e-01 1.132208e-08 0
2.310592e-01 9.045205e-09 0
2.310592e-01 7.567476e-09 0
2.310592e-01 7.608181e-09 0
2.310592e-01 9.367857e-09 0
2.310593e-01 1.205507e-08 0
2.310593e-01 1.425959e-08 0
2.310593e-01 1.495680e-08 0
2.310593e-01 1.400888e-08 0
2.310593e-01 1.206163e-08 0
2.310593e-01 1.030616e-08 0
2.310593e-01 9.979398e-09 0
2.310594e-01 1.148499e-08 0
2.310594e-01 1.396284e-08 0
2.310594e-01 1.595314e-08 0
2.310594e-01 1.642429e-08 0
2.310594e-01 1.533169e-08 0
2.310594e-01 1.360182e-08 0
2.310594e-01 1.259942e-08 0
2.310594e-01 1.320466e-08 0
2.310595e-01 1.511218e-08 0
2.310595e-01 1.703968e-08 0
2.310595e-01 1.768286e-08 0
2.310595e-01 1.660590e-08 0
2.310595e-01 1.452831e-08 0
2.310595e-01 1.291448e-08 0
2.310595e-01 1.303685e-08 0
2.310595e-01 1.505273e-08 0
2.310596e-01 1.781983e-08 0
2.310596e-01 1.962438e-08 0
2.310596e-01 1.933185e-08 0
2.310596e-01 1.712660e-08 0
2.310596e-01 1.438311e-08 0
2.310596e-01 1.284099e-08 0
2.310596e-01 1.352942e-08 0
2.310596e-01 1.614208e-08 0
2.310597e-01 1.922024e-08 0
2.310597e-01 2.106185e-08 0
2.310597e-01 2.076579e-08 0
2.310597e-01 1.870133e-08 0
2.310597e-01 1.618875e-08 0
2.310597e-01 1.465914e-08 0
2.310597e-01 1.487122e-08 0
2.310597e-01 1.658368e-08 0
2.310597e-01 1.880347e-08 0
2.310598e-01 2.041084e-08 0
2.310598e-01 2.075253e-08 0
2.310598e-01 1.989815e-08 0
2.310598e-01 1.846973e-08 0
2.310598e-01 1.721879e-08 0
2.310598e-01 1.665793e-08 0
2.310598e-01 1.688189e-08 0
2.310598e-01 1.760511e-08 0
2.310598e-01 1.836165e-08 0
2.310599e-01 1.873300e-08 0
2.310599e-01 1.850849e-08 0
2.310599e-01 1.773044e-08 0
2.310599e-01 1.664482e-08 0
2.310599e-01 1.559250e-08 0
2.310599e-01 1.487501e-08 0
2.310599e-01 1.464209e-08 0
2.310600e-01 1.484644e-08 0
2.310600e-01 1.527465e-08 0
2.310600e-01 1.562735e-08 0
2.310600e-01 1.564563e-08 0
2.310600e-01 1.522253e-08 0
2.310600e-01 1.445913e-08 0
2.310600e-01 1.364837e-08 0
2.310601e-01 1.315490e-08 0
2.310601e-01 1.324543e-08 0
2.310601e-01 1.393998e-08 0
2.310601e-01 1.495736e-08 0
2.310601e-01 1.582506e-08 0
2.310602e-01 1.610472e-08 0
2.310602e-01 1.563027e-08 0
2.310602e-01 1.463844e-08 0
2.310602e-01 1.367856e-08 0
2.310602e-01 1.333216e-08 0
2.310602e-01 1.388546e-08 0
2.310602e-01 1.514705e-08 0
2.310603e-01 1.652824e-08 0
2.310603e-01 1.735425e-08 0
2.310603e-01 1.723845e-08 0
2.310603e-01 1.630232e-08 0
2.310603e-01 1.510698e-08 0
2.310603e-01 1.433585e-08 0
2.310603e-01 1.441539e-08 0
2.310604e-01 1.528865e-08 0
2.310604e-01 1.646771e-08 0
2.310604e-01 1.732803e-08 0
2.310604e-01 1.746196e-08 0
2.310604e-01 1.688564e-08 0
2.310604e-01 1.599447e-08 0
2.310604e-01 1.531196e-08 0
2.310604e-01 1.518945e-08 0
2.310605e-01 1.562934e-08 0
2.310605e-01 1.632089e-08 0
2.310605e-01 1.684798e-08 0
2.310605e-01 1.693307e-08 0
2.310605e-01 1.657526e-08 0
2.310605e-01 1.601677e-08 0
2.310605e-01 1.557756e-08 0
2.310605e-01 1.546731e-08 0
2.310606e-01 1.568361e-08 0
2.310606e-01 1.604242e-08 0
2.310606e-01 1.630616e-08 0
2.310606e-01 1.632411e-08 0
2.310606e-01 1.610406e-08 0
2.310606e-01 1.578336e-08 0
2.310606e-01 1.553032e-08 0
2.310606e-01 1.544401e-08 0
2.310606e-01 1.551196e-08 0
2.310607e-01 1.563997e-08 0
2.310607e-01 1.572168e-08 0
2.310607e-01 1.569994e-08 0
2.310607e-01 1.558761e-08 0
2.310607e-01 1.544396e-08 0
2.310607e-01 1.532893e-08 0
2.310607e-01 1.526728e-08 0
2.310607e-01 1.524339e-08 0
2.310607e-01 1.522266e-08 0
2.310607e-01 1.517833e-08 0
2.310608e-01 1.510570e-08 0
2.310608e-01 1.501942e-08 0
2.310608e-01 1.494038e-08 0
2.310608e-01 1.488104e-08 0
2.310608e-01 1.483699e-08 0
2.310608e-01 1.479027e-08 0
2.310608e-01 1.472126e-08 0
2.310608e-01 1.462097e-08 0
2.310608e-01 1.449645e-08 0
2.310608e-01 1.436740e-08 0
2.310609e-01 1.425560e-08 0
2.310609e-01 1.417249e-08 0
2.310609e-01 1.411196e-08 0
2.310609e-01 1.405303e-08 0
2.310609e-01 1.397145e-08 0
2.310609e-01 1.385371e-08 0
2.310609e-01 1.370522e-08 0
2.310609e-01 1.354714e-08 0
2.310609e-01 1.340395e-08 0
2.310609e-01 1.328925e-08 0
2.310609e-01 1.319842e-08 0
2.310610e-01 1.311231e-08 0
2.310610e-01 1.300958e-08 0
2.310610e-01 1.287984e-08 0
2.310610e-01 1.272935e-08 0
2.310610e-01 1.257606e-08 0
2.310610e-01 1.243795e-08 0
2.310610e-01 1.232237e-08 0
2.310610e-01 1.222303e-08 0
2.310610e-01 1.212531e-08 0
2.310610e-01 1.201585e-08 0
2.310610e-01 1.189019e-08 0
2.310611e-01 1.175401e-08 0
2.310611e-01 1.161827e-08 0
2.310611e-01 1.149194e-08 0
2.310611e-01 1.137736e-08 0
2.310611e-01 1.127045e-08 0
2.310611e-01 1.116463e-08 0
2.310611e-01 1.105538e-08 0
2.310611e-01 1.094236e-08 0
2.310611e-01 1.082852e-08 0
2.310611e-01 1.071717e-08 0
2.310611e-01 1.060949e-08 0
2.310611e-01 1.050403e-08 0
2.310611e-01 1.039808e-08 0
2.310612e-01 1.028955e-08 0
2.310612e-01 1.017817e-08 0
2.310612e-01 1.006535e-08 0
2.310612e-01 9.952811e-09 0
2.310612e-01 9.841417e-09 0
2.310612e-01 9.730738e-09 0
2.310612e-01 9.619522e-09 0
2.310612e-01 9.506487e-09 0
2.310612e-01 9.390994e-09 0
2.310612e-01 9.273153e-09 0
2.310612e-01 9.153225e-09 0
2.310612e-01 9.030974e-09 0
2.310612e-01 8.905707e-09 0
2.310612e-01 8.776906e-09 0
2.310612e-01 8.644798e-09 0
2.310612e-01 8.510425e-09 0
2.310613e-01 8.375106e-09 0
2.310613e-01 8.239603e-09 0
2.310613e-01 8.103742e-09 0
2.310613e-01 7.966805e-09 0
2.310613e-01 7.828134e-09 0
2.310613e-01 7.687526e-09 0
2.310613e-01 7.545337e-09 0
2.310613e-01 7.402106e-09 0
2.310613e-01 7.258102e-09 0
2.310613e-01 7.113007e-09 0
2.310613e-01 6.966010e-09 0
2.310613e-01 6.816599e-09 0
2.310613e-01 6.665152e-09 0
2.310613e-01 6.512828e-09 0
2.310613e-01 6.361064e-09 0
2.310613e-01 6.210720e-09 0
2.310613e-01 6.061482e-09 0
2.310613e-01 5.912040e-09 0
2.310613e-01 5.760899e-09 0
2.310613e-01 5.607164e-09 0
2.310614e-01 5.450662e-09 0
2.310614e-01 5.291749e-09 0
2.310614e-01 5.131021e-09 0
2.310614e-01 4.969241e-09 0
2.310614e-01 4.807441e-09 0
2.310614e-01 4.645990e-09 0
2.310614e-01 4.484790e-09 0
2.310614e-01 4.323701e-09 0
2.310614e-01 4.162874e-09 0
2.310614e-01 4.001714e-09 0
2.310614e-01 3.840183e-09 0
2.310614e-01 3.678413e-09 0
2.310614e-01 3.514644e-09 0
2.310614e-01 3.348376e-09 0
2.310614e-01 3.180320e-09 0
2.310614e-01 3.011191e-09 0
2.310614e-01 2.842132e-09 0
2.310614e-01 2.674083e-09 0
2.310614e-01 2.507416e-09 0
2.310614e-01 2.342016e-09 0
2.310614e-01 2.177319e-09 0
2.310614e-01 2.012674e-09 0
2.310614e-01 1.847948e-09 0
2.310614e-01 1.683640e-09 0
2.310614e-01 1.520521e-09 0
2.310614e-01 1.359010e-09 0
2.310614e-01 1.198837e-09 0
2.310614e-01 1.039588e-09 0
2.310614e-01 8.805441e-10 0
2.310614e-01 7.191820e-10 0
2.310614e-01 5.493197e-10 0
2.310614e-01 3.564082e-10 0
2.310614e-01 1.118117e-10 0
2.310614e-01 -1.824205e-10 0
2.310615e-01 -1.209660e-09 0
2.310615e-01 -2.082450e-09 0
4.167923e-01 -1.953697e-07 0
4.167923e-01 -4.031854e-07 0
4.167920e-01 -6.711671e-07 0
4.167922e-01 -6.613141e-07 0
4.167925e-01 -4.566564e-07 0
4.167928e-01 -2.054430e-07 0
4.167928e-01 -4.934986e-08 0
4.167927e-01 -4.171908e-08 0
4.167924e-01 -1.300183e-07 0
4.167922e-01 -2.185610e-07 0
4.167922e-01 -2.368493e-07 0
4.167923e-01 -1.742497e-07 0
4.167924e-01 -7.231377e-08 0
4.167925e-01 1.243118e-08 0
4.167925e-01 4.861584e-08 0
4.167924e-01 4.136634e-08 0
4.167924e-01 1.822719e-08 0
4.167924e-01 7.414004e-09 0
4.167924e-01 1.850295e-08 0
4.167924e-01 4.087397e-08 0
4.167924e-01 5.785887e-08 0
4.167924e-01 6.119842e-08 0
4.167924e-01 5.456148e-08 0
4.167924e-01 4.746339e-08 0
4.167924e-01 4.788269e-08 0
4.167924e-01 5.682894e-08 0
4.167924e-01 6.668039e-08 0
4.167924e-01 6.692850e-08 0
4.167924e-01 5.391741e-08 0
4.167924e-01 3.371939e-08 0
4.167924e-01 1.632306e-08 0
4.167924e-01 9.150627e-09 0
4.167924e-01 1.391312e-08 0
4.167924e-01 2.596417e-08 0
4.167924e-01 3.655389e-08 0
4.167925e-01 3.828000e-08 0
4.167925e-01 2.989339e-08 0
4.167924e-01 1.618170e-08 0
4.167924e-01 4.252045e-09 0
4.167924e-01 -2.023023e-10 0
4.167925e-01 4.337457e-09 0
4.167925e-01 1.430092e-08 0
4.167925e-01 2.357589e-08 0
4.167925e-01 2.789279e-08 0
4.167925e-01 2.670271e-08 0
4.167925e-01 2.200755e-08 0
4.167925e-01 1.706043e-08 0
4.167925e-01 1.510729e-08 0
4.167925e-01 1.732081e-08 0
4.167925e-01 2.181470e-08 0
4.167925e-01 2.549838e-08 0
4.167925e-01 2.653615e-08 0
4.167925e-01 2.481375e-08 0
4.167925e-01 2.123467e-08 0
4.167925e-01 1.737062e-08 0
4.167925e-01 1.500613e-08 0
4.167925e-01 1.495886e-08 0
4.167925e-01 1.657117e-08 0
4.167926e-01 1.853164e-08 0
4.167926e-01 1.966735e-08 0
4.167926e-01 1.917634e-08 0
4.167926e-01 1.681557e-08 0
4.167926e-01 1.322647e-08 0
4.167926e-01 9.771647e-09 0
4.167926e-01 7.796027e-09 0
4.167926e-01 7.960507e-09 0
4.167926e-01 9.930370e-09 0
4.167926e-01 1.247682e-08 0
4.167927e-01 1.388281e-08 0
4.167927e-01 1.272983e-08 0