<?xml version="1.0"?>
<VTKFile type="StructuredGrid">
<StructuredGrid WholeExtent="0 38 0 6 0 0 ">
<Piece Extent="0 38 0 6 0 0 ">
<Points>
<DataArray type="Float64" format="ascii" NumberOfComponents="3">
0.000000e+00 0.000000e+00 0.000000e+00
1.315789e-01 0.000000e+00 0.000000e+00
2.631579e-01 0.000000e+00 0.000000e+00
3.947368e-01 0.000000e+00 0.000000e+00
5.263158e-01 0.000000e+00 0.000000e+00
6.578947e-01 0.000000e+00 0.000000e+00
7.894737e-01 0.000000e+00 0.000000e+00
9.210526e-01 0.000000e+00 0.000000e+00
1.052632e+00 0.000000e+00 0.000000e+00
1.184211e+00 0.000000e+00 0.000000e+00
1.315789e+00 0.000000e+00 0.000000e+00
1.447368e+00 0.000000e+00 0.000000e+00
1.578947e+00 0.000000e+00 0.000000e+00
1.710526e+00 0.000000e+00 0.000000e+00
1.842105e+00 0.000000e+00 0.000000e+00
1.973684e+00 0.000000e+00 0.000000e+00
2.105263e+00 0.000000e+00 0.000000e+00
2.236842e+00 0.000000e+00 0.000000e+00
2.368421e+00 0.000000e+00 0.000000e+00
2.500000e+00 0.000000e+00 0.000000e+00
2.631579e+00 0.000000e+00 0.000000e+00
2.763158e+00 0.000000e+00 0.000000e+00
2.894737e+00 0.000000e+00 0.000000e+00
3.026316e+00 0.000000e+00 0.000000e+00
3.157895e+00 0.000000e+00 0.000000e+00
3.289474e+00 0.000000e+00 0.000000e+00
3.421053e+00 0.000000e+00 0.000000e+00
3.552632e+00 0.000000e+00 0.000000e+00
3.684211e+00 0.000000e+00 0.000000e+00
3.815789e+00 0.000000e+00 0.000000e+00
3.947368e+00 0.000000e+00 0.000000e+00
4.078947e+00 0.000000e+00 0.000000e+00
4.210526e+00 0.000000e+00 0.000000e+00
4.342105e+00 0.000000e+00 0.000000e+00
4.473684e+00 0.000000e+00 0.000000e+00
4.605263e+00 0.000000e+00 0.000000e+00
4.736842e+00 0.000000e+00 0.000000e+00
4.868421e+00 0.000000e+00 0.000000e+00
5.000000e+00 0.000000e+00 0.000000e+00
0.000000e+00 1.666667e-01 0.000000e+00
1.315789e-01 1.666667e-01 0.000000e+00
2.631579e-01 1.666667e-01 0.000000e+00
3.947368e-01 1.666667e-01 0.000000e+00
5.263158e-01 1.666667e-01 0.000000e+00
6.578947e-01 1.666667e-01 0.000000e+00
7.894737e-01 1.666667e-01 0.000000e+00
9.210526e-01 1.666667e-01 0.000000e+00
1.052632e+00 1.666667e-01 0.000000e+00
1.184211e+00 1.666667e-01 0.000000e+00
1.315789e+00 1.666667e-01 0.000000e+00
1.447368e+00 1.666667e-01 0.000000e+00
1.578947e+00 1.666667e-01 0.000000e+00
1.710526e+00 1.666667e-01 0.000000e+00
1.842105e+00 1.666667e-01 0.000000e+00
1.973684e+00 1.666667e-01 0.000000e+00
2.105263e+00 1.666667e-01 0.000000e+00
2.236842e+00 1.666667e-01 0.000000e+00
2.368421e+00 1.666667e-01 0.000000e+00
2.500000e+00 1.666667e-01 0.000000e+00
2.631579e+00 1.666667e-01 0.000000e+00
2.763158e+00 1.666667e-01 0.000000e+00
2.894737e+00 1.666667e-01 0.000000e+00
3.026316e+00 1.666667e-01 0.000000e+00
3.157895e+00 1.666667e-01 0.000000e+00
3.289474e+00 1.666667e-01 0.000000e+00
3.421053e+00 1.666667e-01 0.000000e+00
3.552632e+00 1.666667e-01 0.000000e+00
3.684211e+00 1.666667e-01 0.000000e+00
3.815789e+00 1.666667e-01 0.000000e+00
3.947368e+00 1.666667e-01 0.000000e+00
4.078947e+00 1.666667e-01 0.000000e+00
4.210526e+00 1.666667e-01 0.000000e+00
4.342105e+00 1.666667e-01 0.000000e+00
4.473684e+00 1.666667e-01 0.000000e+00
4.605263e+00 1.666667e-01 0.000000e+00
4.736842e+00 1.666667e-01 0.000000e+00
4.868421e+00 1.666667e-01 0.000000e+00
5.000000e+00 1.666667e-01 0.000000e+00
0.000000e+00 3.333333e-01 0.000000e+00
1.315789e-01 3.333333e-01 0.000000e+00
2.631579e-01 3.333333e-01 0.000000e+00
3.947368e-01 3.333333e-01 0.000000e+00
5.263158e-01 3.333333e-01 0.000000e+00
6.578947e-01 3.333333e-01 0.000000e+00
7.894737e-01 3.333333e-01 0.000000e+00
9.210526e-01 3.333333e-01 0.000000e+00
1.052632e+00 3.333333e-01 0.000000e+00
1.184211e+00 3.333333e-01 0.000000e+00
1.315789e+00 3.333333e-01 0.000000e+00
1.447368e+00 3.333333e-01 0.000000e+00
1.578947e+00 3.333333e-01 0.000000e+00
1.710526e+00 3.333333e-01 0.000000e+00
1.842105e+00 3.333333e-01 0.000000e+00
1.973684e+00 3.333333e-01 0.000000e+00
2.105263e+00 3.333333e-01 0.000000e+00
2.236842e+00 3.333333e-01 0.000000e+00
2.368421e+00 3.333333e-01 0.000000e+00
2.500000e+00 3.333333e-01 0.000000e+00
2.631579e+00 3.333333e-01 0.000000e+00
2.763158e+00 3.333333e-01 0.000000e+00
2.894737e+00 3.333333e-01 0.000000e+00
3.026316e+00 3.333333e-01 0.000000e+00
3.157895e+00 3.333333e-01 0.000000e+00
3.289474e+00 3.333333e-01 0.000000e+00
3.421053e+00 3.333333e-01 0.000000e+00
3.552632e+00 3.333333e-01 0.000000e+00
3.684211e+00 3.333333e-01 0.000000e+00
3.815789e+00 3.333333e-01 0.000000e+00
3.947368e+00 3.333333e-01 0.000000e+00
4.078947e+00 3.333333e-01 0.000000e+00
4.210526e+00 3.333333e-01 0.000000e+00
4.342105e+00 3.333333e-01 0.000000e+00
4.473684e+00 3.333333e-01 0.000000e+00
4.605263e+00 3.333333e-01 0.000000e+00
4.736842e+00 3.333333e-01 0.000000e+00
4.868421e+00 3.333333e-01 0.000000e+00
5.000000e+00 3.333333e-01 0.000000e+00
0.000000e+00 5.000000e-01 0.000000e+00
1.315789e-01 5.000000e-01 0.000000e+00
2.631579e-01 5.000000e-01 0.000000e+00
3.947368e-01 5.000000e-01 0.000000e+00
5.263158e-01 5.000000e-01 0.000000e+00
6.578947e-01 5.000000e-01 0.000000e+00
7.894737e-01 5.000000e-01 0.000000e+00
9.210526e-01 5.000000e-01 0.000000e+00
1.052632e+00 5.000000e-01 0.000000e+00
1.184211e+00 5.000000e-01 0.000000e+00
1.315789e+00 5.000000e-01 0.000000e+00
1.447368e+00 5.000000e-01 0.000000e+00
1.578947e+00 5.000000e-01 0.000000e+00
1.710526e+00 5.000000e-01 0.000000e+00
1.842105e+00 5.000000e-01 0.000000e+00
1.973684e+00 5.000000e-01 0.000000e+00
2.105263e+00 5.000000e-01 0.000000e+00
2.236842e+00 5.000000e-01 0.000000e+00
2.368421e+00 5.000000e-01 0.000000e+00
2.500000e+00 5.000000e-01 0.000000e+00
2.631579e+00 5.000000e-01 0.000000e+00
2.763158e+00 5.000000e-01 0.000000e+00
2.894737e+00 5.000000e-01 0.000000e+00
3.026316e+00 5.000000e-01 0.000000e+00
3.157895e+00 5.000000e-01 0.000000e+00
3.289474e+00 5.000000e-01 0.000000e+00
3.421053e+00 5.000000e-01 0.000000e+00
3.552632e+00 5.000000e-01 0.000000e+00
3.684211e+00 5.000000e-01 0.000000e+00
3.815789e+00 5.000000e-01 0.000000e+00
3.947368e+00 5.000000e-01 0.000000e+00
4.078947e+00 5.000000e-01 0.000000e+00
4.210526e+00 5.000000e-01 0.000000e+00
4.342105e+00 5.000000e-01 0.000000e+00
4.473684e+00 5.000000e-01 0.000000e+00
4.605263e+00 5.000000e-01 0.000000e+00
4.736842e+00 5.000000e-01 0.000000e+00
4.868421e+00 5.000000e-01 0.000000e+00
5.000000e+00 5.000000e-01 0.000000e+00
0.000000e+00 6.666667e-01 0.000000e+00
1.315789e-01 6.666667e-01 0.000000e+00
2.631579e-01 6.666667e-01 0.000000e+00
3.947368e-01 6.666667e-01 0.000000e+00
5.263158e-01 6.666667e-01 0.000000e+00
6.578947e-01 6.666667e-01 0.000000e+00
7.894737e-01 6.666667e-01 0.000000e+00
9.210526e-01 6.666667e-01 0.000000e+00
1.052632e+00 6.666667e-01 0.000000e+00
1.184211e+00 6.666667e-01 0.000000e+00
1.315789e+00 6.666667e-01 0.000000e+00
1.447368e+00 6.666667e-01 0.000000e+00
1.578947e+00 6.666667e-01 0.000000e+00
1.710526e+00 6.666667e-01 0.000000e+00
1.842105e+00 6.666667e-01 0.000000e+00
1.973684e+00 6.666667e-01 0.000000e+00
2.105263e+00 6.666667e-01 0.000000e+00
2.236842e+00 6.666667e-01 0.000000e+00
2.368421e+00 6.666667e-01 0.000000e+00
2.500000e+00 6.666667e-01 0.000000e+00
2.631579e+00 6.666667e-01 0.000000e+00
2.763158e+00 6.666667e-01 0.000000e+00
2.894737e+00 6.666667e-01 0.000000e+00
3.026316e+00 6.666667e-01 0.000000e+00
3.157895e+00 6.666667e-01 0.000000e+00
3.289474e+00 6.666667e-01 0.000000e+00
3.421053e+00 6.666667e-01 0.000000e+00
3.552632e+00 6.666667e-01 0.000000e+00
3.684211e+00 6.666667e-01 0.000000e+00
3.815789e+00 6.666667e-01 0.000000e+00
3.947368e+00 6.666667e-01 0.000000e+00
4.078947e+00 6.666667e-01 0.000000e+00
4.210526e+00 6.666667e-01 0.000000e+00
4.342105e+00 6.666667e-01 0.000000e+00
4.473684e+00 6.666667e-01 0.000000e+00
4.605263e+00 6.666667e-01 0.000000e+00
4.736842e+00 6.666667e-01 0.000000e+00
4.868421e+00 6.666667e-01 0.000000e+00
5.000000e+00 6.666667e-01 0.000000e+00
0.000000e+00 8.333333e-01 0.000000e+00
1.315789e-01 8.333333e-01 0.000000e+00
2.631579e-01 8.333333e-01 0.000000e+00
3.947368e-01 8.333333e-01 0.000000e+00
5.263158e-01 8.333333e-01 0.000000e+00
6.578947e-01 8.333333e-01 0.000000e+00
7.894737e-01 8.333333e-01 0.000000e+00
9.210526e-01 8.333333e-01 0.000000e+00
1.052632e+00 8.333333e-01 0.000000e+00
1.184211e+00 8.333333e-01 0.000000e+00
1.315789e+00 8.333333e-01 0.000000e+00
1.447368e+00 8.333333e-01 0.000000e+00
1.578947e+00 8.333333e-01 0.000000e+00
1.710526e+00 8.333333e-01 0.000000e+00
1.842105e+00 8.333333e-01 0.000000e+00
1.973684e+00 8.333333e-01 0.000000e+00
2.105263e+00 8.333333e-01 0.000000e+00
2.236842e+00 8.333333e-01 0.000000e+00
2.368421e+00 8.333333e-01 0.000000e+00
2.500000e+00 8.333333e-01 0.000000e+00
2.631579e+00 8.333333e-01 0.000000e+00
2.763158e+00 8.333333e-01 0.000000e+00
2.894737e+00 8.333333e-01 0.000000e+00
3.026316e+00 8.333333e-01 0.000000e+00
3.157895e+00 8.333333e-01 0.000000e+00
3.289474e+00 8.333333e-01 0.000000e+00
3.421053e+00 8.333333e-01 0.000000e+00
3.552632e+00 8.333333e-01 0.000000e+00
3.684211e+00 8.333333e-01 0.000000e+00
3.815789e+00 8.333333e-01 0.000000e+00
3.947368e+00 8.333333e-01 0.000000e+00
4.078947e+00 8.333333e-01 0.000000e+00
4.210526e+00 8.333333e-01 0.000000e+00
4.342105e+00 8.333333e-01 0.000000e+00
4.473684e+00 8.333333e-01 0.000000e+00
4.605263e+00 8.333333e-01 0.000000e+00
4.736842e+00 8.333333e-01 0.000000e+00
4.868421e+00 8.333333e-01 0.000000e+00
5.000000e+00 8.333333e-01 0.000000e+00
0.000000e+00 1.000000e+00 0.000000e+00
1.315789e-01 1.000000e+00 0.000000e+00
2.631579e-01 1.000000e+00 0.000000e+00
3.947368e-01 1.000000e+00 0.000000e+00
5.263158e-01 1.000000e+00 0.000000e+00
6.578947e-01 1.000000e+00 0.000000e+00
7.894737e-01 1.000000e+00 0.000000e+00
9.210526e-01 1.000000e+00 0.000000e+00
1.052632e+00 1.000000e+00 0.000000e+00
1.184211e+00 1.000000e+00 0.000000e+00
1.315789e+00 1.000000e+00 0.000000e+00
1.447368e+00 1.000000e+00 0.000000e+00
1.578947e+00 1.000000e+00 0.000000e+00
1.710526e+00 1.000000e+00 0.000000e+00
1.842105e+00 1.000000e+00 0.000000e+00
1.973684e+00 1.000000e+00 0.000000e+00
2.105263e+00 1.000000e+00 0.000000e+00
2.236842e+00 1.000000e+00 0.000000e+00
2.368421e+00 1.000000e+00 0.000000e+00
2.500000e+00 1.000000e+00 0.000000e+00
2.631579e+00 1.000000e+00 0.000000e+00
2.763158e+00 1.000000e+00 0.000000e+00
2.894737e+00 1.000000e+00 0.000000e+00
3.026316e+00 1.000000e+00 0.000000e+00
3.157895e+00 1.000000e+00 0.000000e+00
3.289474e+00 1.000000e+00 0.000000e+00
3.421053e+00 1.000000e+00 0.000000e+00
3.552632e+00 1.000000e+00 0.000000e+00
3.684211e+00 1.000000e+00 0.000000e+00
3.815789e+00 1.000000e+00 0.000000e+00
3.947368e+00 1.000000e+00 0.000000e+00
4.078947e+00 1.000000e+00 0.000000e+00
4.210526e+00 1.000000e+00 0.000000e+00
4.342105e+00 1.000000e+00 0.000000e+00
4.473684e+00 1.000000e+00 0.000000e+00
4.605263e+00 1.000000e+00 0.000000e+00
4.736842e+00 1.000000e+00 0.000000e+00
4.868421e+00 1.000000e+00 0.000000e+00
5.000000e+00 1.000000e+00 0.000000e+00
</DataArray>
</Points>
<PointData>
<DataArray Name="Velocity" type="Float64" format="ascii" NumberOfComponents="3">
0.000000e+00 0.000000e+00 0
0.000000e+00 0.000000e+00 0
0.000000e+00 0.000000e+00 0
2.067472e-17 0.000000e+00 0
0.000000e+00 0.000000e+00 0
0.000000e+00 0.000000e+00 0
-1.416999e-17 0.000000e+00 0
0.000000e+00 0.000000e+00 0
0.000000e+00 0.000000e+00 0
0.000000e+00 0.000000e+00 0
0.000000e+00 0.000000e+00 0
0.000000e+00 0.000000e+00 0
2.716829e-17 0.000000e+00 0
0.000000e+00 0.000000e+00 0
0.000000e+00 0.000000e+00 0
0.000000e+00 0.000000e+00 0
0.000000e+00 0.000000e+00 0
0.000000e+00 0.000000e+00 0
0.000000e+00 0.000000e+00 0
0.000000e+00 0.000000e+00 0
0.000000e+00 0.000000e+00 0
0.000000e+00 0.000000e+00 0
0.000000e+00 0.000000e+00 0
0.000000e+00 0.000000e+00 0
0.000000e+00 0.000000e+00 0
0.000000e+00 0.000000e+00 0
0.000000e+00 0.000000e+00 0
0.000000e+00 0.000000e+00 0
0.000000e+00 0.000000e+00 0
0.000000e+00 0.000000e+00 0
0.000000e+00 0.000000e+00 0
0.000000e+00 0.000000e+00 0
0.000000e+00 0.000000e+00 0
0.000000e+00 0.000000e+00 0
0.000000e+00 0.000000e+00 0
0.000000e+00 0.000000e+00 0
0.000000e+00 0.000000e+00 0
0.000000e+00 0.000000e+00 0
0.000000e+00 0.000000e+00 0
9.135572e-01 -2.286896e-06 0
9.135572e-01 1.710556e-06 0
9.135762e-01 1.103884e-05 0
9.135876e-01 1.450732e-05 0
9.135801e-01 6.585011e-06 0
9.135685e-01 -9.751431e-07 0
9.135671e-01 7.317394e-07 0
9.135721e-01 5.587207e-06 0
9.135739e-01 5.102904e-06 0
9.135712e-01 5.682864e-07 0
9.135687e-01 -1.993297e-06 0
9.135685e-01 -1.229924e-06 0
9.135692e-01 -2.831258e-08 0
9.135700e-01 -1.920500e-07 0
9.135708e-01 -1.041010e-06 0
9.135718e-01 -1.489860e-06 0
9.135729e-01 -1.328743e-06 0
9.135740e-01 -8.957811e-07 0
9.135748e-01 -5.448434e-07 0
9.135754e-01 -4.000275e-07 0
9.135760e-01 -4.146079e-07 0
9.135766e-01 -5.901045e-07 0
9.135770e-01 -9.687254e-07 0
9.135774e-01 -1.451303e-06 0
9.135776e-01 -1.838473e-06 0
9.135777e-01 -2.033127e-06 0
9.135777e-01 -2.036338e-06 0
9.135775e-01 -1.851464e-06 0
9.135772e-01 -1.515952e-06 0
9.135768e-01 -1.144764e-06 0
9.135763e-01 -8.307507e-07 0
9.135758e-01 -5.905060e-07 0
9.135753e-01 -3.922986e-07 0
9.135749e-01 -2.248379e-07 0
9.135746e-01 -7.299838e-08 0
9.135744e-01 8.163027e-08 0
9.135743e-01 2.792116e-07 0
9.135743e-01 3.234354e-07 0
9.135743e-01 2.432688e-07 0
9.881293e-01 2.230984e-06 0
9.881293e-01 7.221573e-06 0
9.881461e-01 1.247946e-05 0
9.881437e-01 8.135042e-06 0
9.881314e-01 1.021635e-06 0
9.881274e-01 5.334119e-07 0
9.881337e-01 4.706605e-06 0
9.881390e-01 5.933314e-06 0
9.881381e-01 2.858308e-06 0
9.881352e-01 -1.103955e-07 0
9.881341e-01 -7.325662e-07 0
9.881344e-01 -6.703716e-07 0
9.881348e-01 -1.484749e-06 0
9.881353e-01 -2.741406e-06 0
9.881358e-01 -3.541271e-06 0
9.881363e-01 -3.707398e-06 0
9.881366e-01 -3.519702e-06 0
9.881371e-01 -3.262489e-06 0
9.881376e-01 -3.019561e-06 0
9.881383e-01 -2.695952e-06 0
9.881391e-01 -2.257388e-06 0
9.881399e-01 -1.829545e-06 0
9.881402e-01 -1.503937e-06 0
9.881402e-01 -1.232390e-06 0
9.881396e-01 -9.523714e-07 0
9.881385e-01 -6.443660e-07 0
9.881372e-01 -2.710795e-07 0
9.881357e-01 1.747961e-07 0
9.881343e-01 6.057901e-07 0
9.881328e-01 9.116108e-07 0
9.881314e-01 1.054916e-06 0
9.881303e-01 1.051971e-06 0
9.881294e-01 9.335244e-07 0
9.881286e-01 7.486822e-07 0
9.881282e-01 5.439541e-07 0
9.881279e-01 3.572200e-07 0
9.881279e-01 1.997584e-07 0
9.881280e-01 6.218926e-08 0
9.881280e-01 -2.634305e-09 0
9.922329e-01 3.051563e-06 0
9.922329e-01 5.377483e-06 0
9.922399e-01 5.614801e-06 0
9.922303e-01 9.363489e-07 0
9.922219e-01 -8.496928e-07 0
9.922253e-01 1.909066e-06 0
9.922328e-01 3.920914e-06 0
9.922347e-01 2.641206e-06 0
9.922322e-01 6.648177e-07 0
9.922306e-01 3.050716e-07 0
9.922308e-01 6.439235e-07 0
9.922307e-01 1.576927e-07 0
9.922299e-01 -1.016528e-06 0
9.922288e-01 -1.980012e-06 0
9.922278e-01 -2.400011e-06 0
9.922268e-01 -2.484967e-06 0
9.922258e-01 -2.516624e-06 0
9.922248e-01 -2.627973e-06 0
9.922239e-01 -2.737348e-06 0
9.922232e-01 -2.685964e-06 0
9.922227e-01 -2.438702e-06 0
9.922223e-01 -2.040161e-06 0
9.922220e-01 -1.492083e-06 0
9.922215e-01 -8.083876e-07 0
9.922210e-01 -7.291100e-08 0
9.922203e-01 6.483687e-07 0
9.922195e-01 1.315799e-06 0
9.922188e-01 1.854600e-06 0
9.922182e-01 2.184773e-06 0
9.922177e-01 2.293182e-06 0
9.922173e-01 2.208238e-06 0
9.922170e-01 1.978869e-06 0
9.922169e-01 1.641648e-06 0
9.922168e-01 1.258339e-06 0
9.922167e-01 8.682532e-07 0
9.922167e-01 4.999194e-07 0
9.922167e-01 1.455152e-07 0
9.922168e-01 -1.120717e-07 0
9.922168e-01 -1.799038e-07 0
9.882071e-01 1.656208e-06 0
9.882071e-01 1.715107e-06 0
9.882066e-01 2.311306e-07 0
9.881966e-01 -1.548281e-06 0
9.881932e-01 -5.139549e-07 0
9.881991e-01 1.253825e-06 0
9.882042e-01 1.060252e-06 0
9.882035e-01 -1.225410e-07 0
9.882012e-01 -2.825569e-07 0
9.882009e-01 4.942869e-07 0
9.882017e-01 8.824291e-07 0
9.882019e-01 4.596544e-07 0
9.882012e-01 -2.271365e-07 0
9.882003e-01 -7.327222e-07 0
9.881992e-01 -1.013590e-06 0
9.881981e-01 -1.170009e-06 0
9.881970e-01 -1.294246e-06 0
9.881958e-01 -1.403832e-06 0
9.881946e-01 -1.443701e-06 0
9.881935e-01 -1.392298e-06 0
9.881925e-01 -1.276802e-06 0
9.881915e-01 -1.072475e-06 0
9.881907e-01 -7.192427e-07 0
9.881900e-01 -2.244969e-07 0
9.881895e-01 3.471932e-07 0
9.881892e-01 9.310397e-07 0
9.881893e-01 1.444078e-06 0
9.881896e-01 1.796763e-06 0
9.881901e-01 1.948838e-06 0
9.881907e-01 1.924754e-06 0
9.881914e-01 1.763320e-06 0
9.881921e-01 1.513110e-06 0
9.881926e-01 1.219743e-06 0
9.881932e-01 9.179226e-07 0
9.881935e-01 6.359847e-07 0
9.881938e-01 3.802998e-07 0
9.881939e-01 1.367047e-07 0
9.881940e-01 -6.804453e-08 0
9.881940e-01 -1.489671e-07 0
9.136414e-01 9.298657e-07 0
9.136414e-01 2.159981e-07 0
9.136385e-01 -1.023169e-06 0
9.136305e-01 -9.129273e-07 0
9.136294e-01 4.198187e-07 0
9.136346e-01 9.826970e-07 0
9.136375e-01 4.066241e-07 0
9.136361e-01 -8.985843e-08 0
9.136343e-01 4.935678e-08 0
9.136344e-01 2.581121e-07 0
9.136353e-01 1.190717e-07 0
9.136355e-01 -1.183475e-07 0
9.136352e-01 -1.568306e-07 0
9.136347e-01 -4.166831e-08 0
9.136342e-01 4.825452e-08 0
9.136337e-01 2.982479e-08 0
9.136330e-01 -7.672249e-08 0
9.136322e-01 -1.946736e-07 0
9.136314e-01 -2.547276e-07 0
9.136307e-01 -2.430734e-07 0
9.136301e-01 -1.593487e-07 0
9.136295e-01 2.685920e-09 0
9.136291e-01 2.136271e-07 0
9.136288e-01 4.204892e-07 0
9.136287e-01 5.949805e-07 0
9.136288e-01 7.211072e-07 0
9.136293e-01 7.770943e-07 0
9.136299e-01 7.557575e-07 0
9.136306e-01 6.745208e-07 0
9.136313e-01 5.564681e-07 0
9.136320e-01 4.265259e-07 0
9.136327e-01 2.978873e-07 0
9.136332e-01 1.896655e-07 0
9.136336e-01 1.040927e-07 0
9.136339e-01 4.322544e-08 0
9.136341e-01 -3.209472e-09 0
9.136341e-01 -4.401881e-08 0
9.136342e-01 -8.191323e-08 0
9.136342e-01 -1.068652e-07 0
0.000000e+00 0.000000e+00 0
0.000000e+00 0.000000e+00 0
0.000000e+00 0.000000e+00 0
-2.067306e-17 0.000000e+00 0
0.000000e+00 0.000000e+00 0
0.000000e+00 0.000000e+00 0
1.416252e-17 0.000000e+00 0
0.000000e+00 0.000000e+00 0
0.000000e+00 0.000000e+00 0
0.000000e+00 0.000000e+00 0
0.000000e+00 0.000000e+00 0
0.000000e+00 0.000000e+00 0
-2.718456e-17 0.000000e+00 0
0.000000e+00 0.000000e+00 0
0.000000e+00 0.000000e+00 0
0.000000e+00 0.000000e+00 0
0.000000e+00 0.000000e+00 0
0.000000e+00 0.000000e+00 0
0.000000e+00 0.000000e+00 0
0.000000e+00 0.000000e+00 0
0.000000e+00 0.000000e+00 0
0.000000e+00 0.000000e+00 0
0.000000e+00 0.000000e+00 0
0.000000e+00 0.000000e+00 0
0.000000e+00 0.000000e+00 0
0.000000e+00 0.000000e+00 0
0.000000e+00 0.000000e+00 0
0.000000e+00 0.000000e+00 0
0.000000e+00 0.000000e+00 0
0.000000e+00 0.000000e+00 0
0.000000e+00 0.000000e+00 0
0.000000e+00 0.000000e+00 0
0.000000e+00 0.000000e+00 0
0.000000e+00 0.000000e+00 0
0.000000e+00 0.000000e+00 0
0.000000e+00 0.000000e+00 0
0.000000e+00 0.000000e+00 0
0.000000e+00 0.000000e+00 0
0.000000e+00 0.000000e+00 0
</DataArray>
<DataArray Name="Pressure" type="Float64" format="ascii">
9.967745e-02 9.741876e-02 9.481217e-02 9.215324e-02 8.947814e-02 8.683998e-02 8.423011e-02 8.160838e-02 7.896377e-02 7.631674e-02 7.368179e-02 7.105361e-02 6.842344e-02 6.579046e-02 6.315740e-02 6.052514e-02 5.789314e-02 5.526104e-02 5.262896e-02 4.999724e-02 4.736595e-02 4.473474e-02 4.210328e-02 3.947167e-02 3.684011e-02 3.420861e-02 3.157720e-02 2.894594e-02 2.631474e-02 2.368338e-02 2.105188e-02 1.842038e-02 1.578894e-02 1.315751e-02 1.052605e-02 7.894558e-03 5.263059e-03 2.631462e-03 3.289015e-04 
1.000000e-01 9.740697e-02 9.478257e-02 9.212034e-02 8.946354e-02 8.684144e-02 8.423008e-02 8.160018e-02 7.895534e-02 7.631460e-02 7.368346e-02 7.105454e-02 6.842292e-02 6.578988e-02 6.315730e-02 6.052524e-02 5.789322e-02 5.526111e-02 5.262912e-02 4.999753e-02 4.736624e-02 4.473488e-02 4.210332e-02 3.947169e-02 3.684013e-02 3.420863e-02 3.157727e-02 2.894603e-02 2.631475e-02 2.368333e-02 2.105184e-02 1.842038e-02 1.578895e-02 1.315751e-02 1.052605e-02 7.894560e-03 5.263057e-03 2.631535e-03 0.000000e+00 
1.000000e-01 9.738104e-02 9.473117e-02 9.207472e-02 8.944998e-02 8.684510e-02 8.422473e-02 8.158387e-02 7.894292e-02 7.631233e-02 7.368510e-02 7.105439e-02 6.842137e-02 6.578889e-02 6.315709e-02 6.052526e-02 5.789321e-02 5.526114e-02 5.262936e-02 4.999797e-02 4.736663e-02 4.473506e-02 4.210337e-02 3.947173e-02 3.684016e-02 3.420871e-02 3.157742e-02 2.894613e-02 2.631472e-02 2.368324e-02 2.105179e-02 1.842038e-02 1.578896e-02 1.315750e-02 1.052603e-02 7.894558e-03 5.263055e-03 2.631607e-03 0.000000e+00 
1.000000e-01 9.735979e-02 9.470362e-02 9.206454e-02 8.945623e-02 8.684691e-02 8.421476e-02 8.157277e-02 7.893902e-02 7.631263e-02 7.368438e-02 7.105232e-02 6.841982e-02 6.578826e-02 6.315680e-02 6.052499e-02 5.789297e-02 5.526104e-02 5.262947e-02 4.999815e-02 4.736671e-02 4.473506e-02 4.210337e-02 3.947174e-02 3.684020e-02 3.420882e-02 3.157753e-02 2.894614e-02 2.631466e-02 2.368320e-02 2.105180e-02 1.842039e-02 1.578895e-02 1.315749e-02 1.052602e-02 7.894561e-03 5.263067e-03 2.631579e-03 0.000000e+00 
1.000000e-01 9.735193e-02 9.470074e-02 9.207301e-02 8.946481e-02 8.684587e-02 8.420891e-02 8.157032e-02 7.894019e-02 7.631328e-02 7.368332e-02 7.105108e-02 6.841919e-02 6.578788e-02 6.315642e-02 6.052462e-02 5.789270e-02 5.526095e-02 5.262951e-02 4.999816e-02 4.736665e-02 4.473500e-02 4.210333e-02 3.947172e-02 3.684023e-02 3.420890e-02 3.157756e-02 2.894611e-02 2.631464e-02 2.368321e-02 2.105182e-02 1.842039e-02 1.578895e-02 1.315749e-02 1.052603e-02 7.894564e-03 5.263082e-03 2.631547e-03 0.000000e+00 
1.000000e-01 9.735217e-02 9.470664e-02 9.208159e-02 8.946846e-02 8.684432e-02 8.420754e-02 8.157141e-02 7.894163e-02 7.631343e-02 7.368284e-02 7.105084e-02 6.841914e-02 6.578776e-02 6.315621e-02 6.052444e-02 5.789259e-02 5.526092e-02 5.262950e-02 4.999811e-02 4.736658e-02 4.473494e-02 4.210329e-02 3.947169e-02 3.684025e-02 3.420892e-02 3.157755e-02 2.894610e-02 2.631464e-02 2.368323e-02 2.105183e-02 1.842040e-02 1.578895e-02 1.315750e-02 1.052604e-02 7.894559e-03 5.263076e-03 2.631532e-03 0.000000e+00 
9.966957e-02 9.735317e-02 9.470965e-02 9.208426e-02 8.946873e-02 8.684342e-02 8.420737e-02 8.157198e-02 7.894198e-02 7.631334e-02 7.368272e-02 7.105087e-02 6.841920e-02 6.578777e-02 6.315621e-02 6.052443e-02 5.789259e-02 5.526093e-02 5.262949e-02 4.999808e-02 4.736655e-02 4.473492e-02 4.210326e-02 3.947168e-02 3.684026e-02 3.420892e-02 3.157755e-02 2.894610e-02 2.631465e-02 2.368323e-02 2.105183e-02 1.842040e-02 1.578896e-02 1.315750e-02 1.052604e-02 7.894554e-03 5.263068e-03 2.631522e-03 3.289276e-04 
</DataArray>
<DataArray Name="Stream" type="Float64" format="ascii">
0.000000e+00 0.000000e+00 0.000000e+00 0.000000e+00 0.000000e+00 0.000000e+00 0.000000e+00 0.000000e+00 0.000000e+00 0.000000e+00 0.000000e+00 0.000000e+00 0.000000e+00 0.000000e+00 0.000000e+00 0.000000e+00 0.000000e+00 0.000000e+00 0.000000e+00 0.000000e+00 0.000000e+00 0.000000e+00 0.000000e+00 0.000000e+00 0.000000e+00 0.000000e+00 0.000000e+00 0.000000e+00 0.000000e+00 0.000000e+00 0.000000e+00 0.000000e+00 0.000000e+00 0.000000e+00 0.000000e+00 0.000000e+00 0.000000e+00 0.000000e+00 0.000000e+00 
0.000000e+00 1.405127e-01 1.405155e-01 1.405187e-01 1.405184e-01 1.405160e-01 1.405148e-01 1.405153e-01 1.405158e-01 1.405155e-01 1.405150e-01 1.405149e-01 1.405149e-01 1.405148e-01 1.405148e-01 1.405148e-01 1.405149e-01 1.405150e-01 1.405150e-01 1.405149e-01 1.405148e-01 1.405148e-01 1.405148e-01 1.405149e-01 1.405151e-01 1.405153e-01 1.405155e-01 1.405158e-01 1.405159e-01 1.405161e-01 1.405162e-01 1.405163e-01 1.405163e-01 1.405163e-01 1.405163e-01 1.405163e-01 1.405163e-01 1.405162e-01 1.405162e-01 
0.000000e+00 3.045191e-01 3.045254e-01 3.045292e-01 3.045267e-01 3.045228e-01 3.045224e-01 3.045240e-01 3.045246e-01 3.045237e-01 3.045229e-01 3.045228e-01 3.045231e-01 3.045233e-01 3.045236e-01 3.045239e-01 3.045243e-01 3.045247e-01 3.045249e-01 3.045251e-01 3.045253e-01 3.045255e-01 3.045257e-01 3.045258e-01 3.045259e-01 3.045259e-01 3.045259e-01 3.045258e-01 3.045257e-01 3.045256e-01 3.045254e-01 3.045253e-01 3.045251e-01 3.045250e-01 3.045249e-01 3.045248e-01 3.045248e-01 3.045248e-01 3.045248e-01 
0.000000e+00 4.698891e-01 4.698975e-01 4.699000e-01 4.698956e-01 4.698918e-01 4.698927e-01 4.698950e-01 4.698952e-01 4.698939e-01 4.698930e-01 4.698930e-01 4.698931e-01 4.698932e-01 4.698934e-01 4.698936e-01 4.698938e-01 4.698940e-01 4.698942e-01 4.698943e-01 4.698945e-01 4.698947e-01 4.698949e-01 4.698950e-01 4.698950e-01 4.698948e-01 4.698946e-01 4.698943e-01 4.698940e-01 4.698937e-01 4.698933e-01 4.698930e-01 4.698927e-01 4.698925e-01 4.698924e-01 4.698923e-01 4.698922e-01 4.698922e-01 4.698922e-01 
0.000000e+00 6.352634e-01 6.352721e-01 6.352726e-01 6.352673e-01 6.352646e-01 6.352666e-01 6.352689e-01 6.352687e-01 6.352673e-01 6.352665e-01 6.352664e-01 6.352664e-01 6.352663e-01 6.352662e-01 6.352662e-01 6.352662e-01 6.352663e-01 6.352662e-01 6.352662e-01 6.352662e-01 6.352663e-01 6.352663e-01 6.352663e-01 6.352662e-01 6.352660e-01 6.352657e-01 6.352655e-01 6.352652e-01 6.352648e-01 6.352645e-01 6.352643e-01 6.352641e-01 6.352639e-01 6.352638e-01 6.352637e-01 6.352637e-01 6.352637e-01 6.352637e-01 
0.000000e+00 7.992915e-01 7.992997e-01 7.992988e-01 7.992933e-01 7.992915e-01 7.992941e-01 7.992962e-01 7.992956e-01 7.992942e-01 7.992936e-01 7.992936e-01 7.992935e-01 7.992933e-01 7.992931e-01 7.992929e-01 7.992928e-01 7.992926e-01 7.992924e-01 7.992921e-01 7.992920e-01 7.992919e-01 7.992918e-01 7.992917e-01 7.992915e-01 7.992913e-01 7.992911e-01 7.992909e-01 7.992907e-01 7.992906e-01 7.992905e-01 7.992904e-01 7.992903e-01 7.992903e-01 7.992902e-01 7.992902e-01 7.992902e-01 7.992902e-01 7.992902e-01 
0.000000e+00 9.398105e-01 9.398182e-01 9.398161e-01 9.398105e-01 9.398095e-01 9.398125e-01 9.398143e-01 9.398135e-01 9.398121e-01 9.398116e-01 9.398116e-01 9.398114e-01 9.398112e-01 9.398109e-01 9.398108e-01 9.398106e-01 9.398103e-01 9.398100e-01 9.398098e-01 9.398096e-01 9.398095e-01 9.398094e-01 9.398092e-01 9.398091e-01 9.398089e-01 9.398088e-01 9.398088e-01 9.398087e-01 9.398086e-01 9.398086e-01 9.398085e-01 9.398085e-01 9.398084e-01 9.398084e-01 9.398084e-01 9.398084e-01 9.398084e-01 9.398084e-01 
</DataArray>
<DataArray Name="Vorticity" type="Float64" format="ascii">
1.011691e+01 1.011691e+01 1.011712e+01 1.011735e+01 1.011733e+01 1.011716e+01 1.011707e+01 1.011710e+01 1.011714e+01 1.011712e+01 1.011708e+01 1.011707e+01 1.011707e+01 1.011707e+01 1.011706e+01 1.011707e+01 1.011707e+01 1.011708e+01 1.011708e+01 1.011707e+01 1.011707e+01 1.011707e+01 1.011707e+01 1.011708e+01 1.011709e+01 1.011710e+01 1.011712e+01 1.011713e+01 1.011715e+01 1.011716e+01 1.011717e+01 1.011717e+01 1.011717e+01 1.011718e+01 1.011718e+01 1.011717e+01 1.011717e+01 1.011717e+01 1.011717e+01 
8.457743e-01 8.457135e-01 8.457188e-01 8.457312e-01 8.457261e-01 8.456902e-01 8.456880e-01 8.457358e-01 8.457794e-01 8.457748e-01 8.457466e-01 8.457384e-01 8.457572e-01 8.457809e-01 8.457930e-01 8.457959e-01 8.457984e-01 8.458056e-01 8.458176e-01 8.458316e-01 8.458451e-01 8.458555e-01 8.458600e-01 8.458566e-01 8.458457e-01 8.458300e-01 8.458121e-01 8.457938e-01 8.457765e-01 8.457612e-01 8.457482e-01 8.457375e-01 8.457292e-01 8.457230e-01 8.457191e-01 8.457171e-01 8.457172e-01 8.457230e-01 8.457218e-01 
4.909164e-02 4.901579e-02 4.903442e-02 4.904072e-02 4.901857e-02 4.900817e-02 4.902933e-02 4.905584e-02 4.905660e-02 4.904270e-02 4.903732e-02 4.904015e-02 4.903587e-02 4.901906e-02 4.899726e-02 4.897748e-02 4.896105e-02 4.894651e-02 4.893234e-02 4.891914e-02 4.890906e-02 4.890303e-02 4.889990e-02 4.889833e-02 4.889773e-02 4.889776e-02 4.889807e-02 4.889917e-02 4.890178e-02 4.890567e-02 4.891025e-02 4.891492e-02 4.891899e-02 4.892193e-02 4.892354e-02 4.892434e-02 4.892453e-02 4.892369e-02 4.892270e-02 
1.511800e-04 1.158260e-04 1.195699e-04 1.081724e-04 9.343895e-05 1.068230e-04 1.267917e-04 1.276812e-04 1.150726e-04 1.105544e-04 1.187101e-04 1.263177e-04 1.245928e-04 1.173618e-04 1.112037e-04 1.083793e-04 1.076231e-04 1.061855e-04 1.019993e-04 9.532435e-05 8.763043e-05 8.007049e-05 7.386460e-05 7.057958e-05 7.106780e-05 7.507206e-05 8.197800e-05 9.117044e-05 1.013546e-04 1.115107e-04 1.209414e-04 1.291393e-04 1.356583e-04 1.405139e-04 1.436981e-04 1.455187e-04 1.459874e-04 1.437383e-04 1.427073e-04 
-4.846088e-02 -4.846178e-02 -4.846486e-02 -4.847058e-02 -4.846919e-02 -4.845938e-02 -4.846093e-02 -4.847430e-02 -4.848328e-02 -4.847898e-02 -4.846766e-02 -4.845862e-02 -4.845402e-02 -4.845208e-02 -4.845155e-02 -4.845174e-02 -4.845235e-02 -4.845319e-02 -4.845373e-02 -4.845363e-02 -4.845365e-02 -4.845482e-02 -4.845693e-02 -4.845863e-02 -4.845885e-02 -4.845703e-02 -4.845294e-02 -4.844720e-02 -4.844086e-02 -4.843464e-02 -4.842918e-02 -4.842481e-02 -4.842144e-02 -4.841896e-02 -4.841717e-02 -4.841594e-02 -4.841500e-02 -4.841468e-02 -4.841591e-02 
-8.463277e-01 -8.463169e-01 -8.463205e-01 -8.463286e-01 -8.463255e-01 -8.463198e-01 -8.463215e-01 -8.463264e-01 -8.463271e-01 -8.463251e-01 -8.463265e-01 -8.463313e-01 -8.463345e-01 -8.463329e-01 -8.463271e-01 -8.463199e-01 -8.463133e-01 -8.463082e-01 -8.463041e-01 -8.463004e-01 -8.462969e-01 -8.462927e-01 -8.462875e-01 -8.462819e-01 -8.462768e-01 -8.462730e-01 -8.462710e-01 -8.462710e-01 -8.462728e-01 -8.462761e-01 -8.462803e-01 -8.462848e-01 -8.462892e-01 -8.462932e-01 -8.462963e-01 -8.462985e-01 -8.463001e-01 -8.463008e-01 -8.463011e-01 
-1.011737e+01 -1.011737e+01 -1.011733e+01 -1.011725e+01 -1.011724e+01 -1.011729e+01 -1.011732e+01 -1.011731e+01 -1.011729e+01 -1.011729e+01 -1.011729e+01 -1.011729e+01 -1.011729e+01 -1.011729e+01 -1.011728e+01 -1.011728e+01 -1.011728e+01 -1.011728e+01 -1.011727e+01 -1.011727e+01 -1.011727e+01 -1.011726e+01 -1.011726e+01 -1.011726e+01 -1.011727e+01 -1.011727e+01 -1.011728e+01 -1.011729e+01 -1.011729e+01 -1.011730e+01 -1.011730e+01 -1.011731e+01 -1.011731e+01 -1.011731e+01 -1.011731e+01 -1.011731e+01 -1.011731e+01 -1.011731e+01 -1.011731e+01 
</DataArray>
</PointData>
</Piece>
</StructuredGrid>
</VTKFile>
