<?xml version="1.0"?>
<VTKFile type="StructuredGrid">
<StructuredGrid WholeExtent="0 78 0 14 0 0 ">
<Piece Extent="0 78 0 14 0 0 ">
<Points>
<DataArray type="Float64" format="ascii" NumberOfComponents="3">
0.000000e+00 0.000000e+00 0.000000e+00
6.410256e-02 0.000000e+00 0.000000e+00
1.282051e-01 0.000000e+00 0.000000e+00
1.923077e-01 0.000000e+00 0.000000e+00
2.564103e-01 0.000000e+00 0.000000e+00
3.205128e-01 0.000000e+00 0.000000e+00
3.846154e-01 0.000000e+00 0.000000e+00
4.487179e-01 0.000000e+00 0.000000e+00
5.128205e-01 0.000000e+00 0.000000e+00
5.769231e-01 0.000000e+00 0.000000e+00
6.410256e-01 0.000000e+00 0.000000e+00
7.051282e-01 0.000000e+00 0.000000e+00
7.692308e-01 0.000000e+00 0.000000e+00
8.333333e-01 0.000000e+00 0.000000e+00
8.974359e-01 0.000000e+00 0.000000e+00
9.615385e-01 0.000000e+00 0.000000e+00
1.025641e+00 0.000000e+00 0.000000e+00
1.089744e+00 0.000000e+00 0.000000e+00
1.153846e+00 0.000000e+00 0.000000e+00
1.217949e+00 0.000000e+00 0.000000e+00
1.282051e+00 0.000000e+00 0.000000e+00
1.346154e+00 0.000000e+00 0.000000e+00
1.410256e+00 0.000000e+00 0.000000e+00
1.474359e+00 0.000000e+00 0.000000e+00
1.538462e+00 0.000000e+00 0.000000e+00
1.602564e+00 0.000000e+00 0.000000e+00
1.666667e+00 0.000000e+00 0.000000e+00
1.730769e+00 0.000000e+00 0.000000e+00
1.794872e+00 0.000000e+00 0.000000e+00
1.858974e+00 0.000000e+00 0.000000e+00
1.923077e+00 0.000000e+00 0.000000e+00
1.987179e+00 0.000000e+00 0.000000e+00
2.051282e+00 0.000000e+00 0.000000e+00
2.115385e+00 0.000000e+00 0.000000e+00
2.179487e+00 0.000000e+00 0.000000e+00
2.243590e+00 0.000000e+00 0.000000e+00
2.307692e+00 0.000000e+00 0.000000e+00
2.371795e+00 0.000000e+00 0.000000e+00
2.435897e+00 0.000000e+00 0.000000e+00
2.500000e+00 0.000000e+00 0.000000e+00
2.564103e+00 0.000000e+00 0.000000e+00
2.628205e+00 0.000000e+00 0.000000e+00
2.692308e+00 0.000000e+00 0.000000e+00
2.756410e+00 0.000000e+00 0.000000e+00
2.820513e+00 0.000000e+00 0.000000e+00
2.884615e+00 0.000000e+00 0.000000e+00
2.948718e+00 0.000000e+00 0.000000e+00
3.012821e+00 0.000000e+00 0.000000e+00
3.076923e+00 0.000000e+00 0.000000e+00
3.141026e+00 0.000000e+00 0.000000e+00
3.205128e+00 0.000000e+00 0.000000e+00
3.269231e+00 0.000000e+00 0.000000e+00
3.333333e+00 0.000000e+00 0.000000e+00
3.397436e+00 0.000000e+00 0.000000e+00
3.461538e+00 0.000000e+00 0.000000e+00
3.525641e+00 0.000000e+00 0.000000e+00
3.589744e+00 0.000000e+00 0.000000e+00
3.653846e+00 0.000000e+00 0.000000e+00
3.717949e+00 0.000000e+00 0.000000e+00
3.782051e+00 0.000000e+00 0.000000e+00
3.846154e+00 0.000000e+00 0.000000e+00
3.910256e+00 0.000000e+00 0.000000e+00
3.974359e+00 0.000000e+00 0.000000e+00
4.038462e+00 0.000000e+00 0.000000e+00
4.102564e+00 0.000000e+00 0.000000e+00
4.166667e+00 0.000000e+00 0.000000e+00
4.230769e+00 0.000000e+00 0.000000e+00
4.294872e+00 0.000000e+00 0.000000e+00
4.358974e+00 0.000000e+00 0.000000e+00
4.423077e+00 0.000000e+00 0.000000e+00
4.487179e+00 0.000000e+00 0.000000e+00
4.551282e+00 0.000000e+00 0.000000e+00
4.615385e+00 0.000000e+00 0.000000e+00
4.679487e+00 0.000000e+00 0.000000e+00
4.743590e+00 0.000000e+00 0.000000e+00
4.807692e+00 0.000000e+00 0.000000e+00
4.871795e+00 0.000000e+00 0.000000e+00
4.935897e+00 0.000000e+00 0.000000e+00
5.000000e+00 0.000000e+00 0.000000e+00
0.000000e+00 7.142857e-02 0.000000e+00
6.410256e-02 7.142857e-02 0.000000e+00
1.282051e-01 7.142857e-02 0.000000e+00
1.923077e-01 7.142857e-02 0.000000e+00
2.564103e-01 7.142857e-02 0.000000e+00
3.205128e-01 7.142857e-02 0.000000e+00
3.846154e-01 7.142857e-02 0.000000e+00
4.487179e-01 7.142857e-02 0.000000e+00
5.128205e-01 7.142857e-02 0.000000e+00
5.769231e-01 7.142857e-02 0.000000e+00
6.410256e-01 7.142857e-02 0.000000e+00
7.051282e-01 7.142857e-02 0.000000e+00
7.692308e-01 7.142857e-02 0.000000e+00
8.333333e-01 7.142857e-02 0.000000e+00
8.974359e-01 7.142857e-02 0.000000e+00
9.615385e-01 7.142857e-02 0.000000e+00
1.025641e+00 7.142857e-02 0.000000e+00
1.089744e+00 7.142857e-02 0.000000e+00
1.153846e+00 7.142857e-02 0.000000e+00
1.217949e+00 7.142857e-02 0.000000e+00
1.282051e+00 7.142857e-02 0.000000e+00
1.346154e+00 7.142857e-02 0.000000e+00
1.410256e+00 7.142857e-02 0.000000e+00
1.474359e+00 7.142857e-02 0.000000e+00
1.538462e+00 7.142857e-02 0.000000e+00
1.602564e+00 7.142857e-02 0.000000e+00
1.666667e+00 7.142857e-02 0.000000e+00
1.730769e+00 7.142857e-02 0.000000e+00
1.794872e+00 7.142857e-02 0.000000e+00
1.858974e+00 7.142857e-02 0.000000e+00
1.923077e+00 7.142857e-02 0.000000e+00
1.987179e+00 7.142857e-02 0.000000e+00
2.051282e+00 7.142857e-02 0.000000e+00
2.115385e+00 7.142857e-02 0.000000e+00
2.179487e+00 7.142857e-02 0.000000e+00
2.243590e+00 7.142857e-02 0.000000e+00
2.307692e+00 7.142857e-02 0.000000e+00
2.371795e+00 7.142857e-02 0.000000e+00
2.435897e+00 7.142857e-02 0.000000e+00
2.500000e+00 7.142857e-02 0.000000e+00
2.564103e+00 7.142857e-02 0.000000e+00
2.628205e+00 7.142857e-02 0.000000e+00
2.692308e+00 7.142857e-02 0.000000e+00
2.756410e+00 7.142857e-02 0.000000e+00
2.820513e+00 7.142857e-02 0.000000e+00
2.884615e+00 7.142857e-02 0.000000e+00
2.948718e+00 7.142857e-02 0.000000e+00
3.012821e+00 7.142857e-02 0.000000e+00
3.076923e+00 7.142857e-02 0.000000e+00
3.141026e+00 7.142857e-02 0.000000e+00
3.205128e+00 7.142857e-02 0.000000e+00
3.269231e+00 7.142857e-02 0.000000e+00
3.333333e+00 7.142857e-02 0.000000e+00
3.397436e+00 7.142857e-02 0.000000e+00
3.461538e+00 7.142857e-02 0.000000e+00
3.525641e+00 7.142857e-02 0.000000e+00
3.589744e+00 7.142857e-02 0.000000e+00
3.653846e+00 7.142857e-02 0.000000e+00
3.717949e+00 7.142857e-02 0.000000e+00
3.782051e+00 7.142857e-02 0.000000e+00
3.846154e+00 7.142857e-02 0.000000e+00
3.910256e+00 7.142857e-02 0.000000e+00
3.974359e+00 7.142857e-02 0.000000e+00
4.038462e+00 7.142857e-02 0.000000e+00
4.102564e+00 7.142857e-02 0.000000e+00
4.166667e+00 7.142857e-02 0.000000e+00
4.230769e+00 7.142857e-02 0.000000e+00
4.294872e+00 7.142857e-02 0.000000e+00
4.358974e+00 7.142857e-02 0.000000e+00
4.423077e+00 7.142857e-02 0.000000e+00
4.487179e+00 7.142857e-02 0.000000e+00
4.551282e+00 7.142857e-02 0.000000e+00
4.615385e+00 7.142857e-02 0.000000e+00
4.679487e+00 7.142857e-02 0.000000e+00
4.743590e+00 7.142857e-02 0.000000e+00
4.807692e+00 7.142857e-02 0.000000e+00
4.871795e+00 7.142857e-02 0.000000e+00
4.935897e+00 7.142857e-02 0.000000e+00
5.000000e+00 7.142857e-02 0.000000e+00
0.000000e+00 1.428571e-01 0.000000e+00
6.410256e-02 1.428571e-01 0.000000e+00
1.282051e-01 1.428571e-01 0.000000e+00
1.923077e-01 1.428571e-01 0.000000e+00
2.564103e-01 1.428571e-01 0.000000e+00
3.205128e-01 1.428571e-01 0.000000e+00
3.846154e-01 1.428571e-01 0.000000e+00
4.487179e-01 1.428571e-01 0.000000e+00
5.128205e-01 1.428571e-01 0.000000e+00
5.769231e-01 1.428571e-01 0.000000e+00
6.410256e-01 1.428571e-01 0.000000e+00
7.051282e-01 1.428571e-01 0.000000e+00
7.692308e-01 1.428571e-01 0.000000e+00
8.333333e-01 1.428571e-01 0.000000e+00
8.974359e-01 1.428571e-01 0.000000e+00
9.615385e-01 1.428571e-01 0.000000e+00
1.025641e+00 1.428571e-01 0.000000e+00
1.089744e+00 1.428571e-01 0.000000e+00
1.153846e+00 1.428571e-01 0.000000e+00
1.217949e+00 1.428571e-01 0.000000e+00
1.282051e+00 1.428571e-01 0.000000e+00
1.346154e+00 1.428571e-01 0.000000e+00
1.410256e+00 1.428571e-01 0.000000e+00
1.474359e+00 1.428571e-01 0.000000e+00
1.538462e+00 1.428571e-01 0.000000e+00
1.602564e+00 1.428571e-01 0.000000e+00
1.666667e+00 1.428571e-01 0.000000e+00
1.730769e+00 1.428571e-01 0.000000e+00
1.794872e+00 1.428571e-01 0.000000e+00
1.858974e+00 1.428571e-01 0.000000e+00
1.923077e+00 1.428571e-01 0.000000e+00
1.987179e+00 1.428571e-01 0.000000e+00
2.051282e+00 1.428571e-01 0.000000e+00
2.115385e+00 1.428571e-01 0.000000e+00
2.179487e+00 1.428571e-01 0.000000e+00
2.243590e+00 1.428571e-01 0.000000e+00
2.307692e+00 1.428571e-01 0.000000e+00
2.371795e+00 1.428571e-01 0.000000e+00
2.435897e+00 1.428571e-01 0.000000e+00
2.500000e+00 1.428571e-01 0.000000e+00
2.564103e+00 1.428571e-01 0.000000e+00
2.628205e+00 1.428571e-01 0.000000e+00
2.692308e+00 1.428571e-01 0.000000e+00
2.756410e+00 1.428571e-01 0.000000e+00
2.820513e+00 1.428571e-01 0.000000e+00
2.884615e+00 1.428571e-01 0.000000e+00
2.948718e+00 1.428571e-01 0.000000e+00
3.012821e+00 1.428571e-01 0.000000e+00
3.076923e+00 1.428571e-01 0.000000e+00
3.141026e+00 1.428571e-01 0.000000e+00
3.205128e+00 1.428571e-01 0.000000e+00
3.269231e+00 1.428571e-01 0.000000e+00
3.333333e+00 1.428571e-01 0.000000e+00
3.397436e+00 1.428571e-01 0.000000e+00
3.461538e+00 1.428571e-01 0.000000e+00
3.525641e+00 1.428571e-01 0.000000e+00
3.589744e+00 1.428571e-01 0.000000e+00
3.653846e+00 1.428571e-01 0.000000e+00
3.717949e+00 1.428571e-01 0.000000e+00
3.782051e+00 1.428571e-01 0.000000e+00
3.846154e+00 1.428571e-01 0.000000e+00
3.910256e+00 1.428571e-01 0.000000e+00
3.974359e+00 1.428571e-01 0.000000e+00
4.038462e+00 1.428571e-01 0.000000e+00
4.102564e+00 1.428571e-01 0.000000e+00
4.166667e+00 1.428571e-01 0.000000e+00
4.230769e+00 1.428571e-01 0.000000e+00
4.294872e+00 1.428571e-01 0.000000e+00
4.358974e+00 1.428571e-01 0.000000e+00
4.423077e+00 1.428571e-01 0.000000e+00
4.487179e+00 1.428571e-01 0.000000e+00
4.551282e+00 1.428571e-01 0.000000e+00
4.615385e+00 1.428571e-01 0.000000e+00
4.679487e+00 1.428571e-01 0.000000e+00
4.743590e+00 1.428571e-01 0.000000e+00
4.807692e+00 1.428571e-01 0.000000e+00
4.871795e+00 1.428571e-01 0.000000e+00
4.935897e+00 1.428571e-01 0.000000e+00
5.000000e+00 1.428571e-01 0.000000e+00
0.000000e+00 2.142857e-01 0.000000e+00
6.410256e-02 2.142857e-01 0.000000e+00
1.282051e-01 2.142857e-01 0.000000e+00
1.923077e-01 2.142857e-01 0.000000e+00
2.564103e-01 2.142857e-01 0.000000e+00
3.205128e-01 2.142857e-01 0.000000e+00
3.846154e-01 2.142857e-01 0.000000e+00
4.487179e-01 2.142857e-01 0.000000e+00
5.128205e-01 2.142857e-01 0.000000e+00
5.769231e-01 2.142857e-01 0.000000e+00
6.410256e-01 2.142857e-01 0.000000e+00
7.051282e-01 2.142857e-01 0.000000e+00
7.692308e-01 2.142857e-01 0.000000e+00
8.333333e-01 2.142857e-01 0.000000e+00
[...]
<PointData>
<DataArray Name="Velocity" type="Float64" format="ascii" NumberOfComponents="3">
0.000000e+00 0.000000e+00 0
0.000000e+00 0.000000e+00 0
0.000000e+00 0.000000e+00 0
0.000000e+00 0.000000e+00 0
0.000000e+00 0.000000e+00 0
0.000000e+00 0.000000e+00 0
0.000000e+00 0.000000e+00 0
0.000000e+00 0.000000e+00 0
0.000000e+00 0.000000e+00 0
0.000000e+00 0.000000e+00 0
0.000000e+00 0.000000e+00 0
0.000000e+00 0.000000e+00 0
0.000000e+00 0.000000e+00 0
0.000000e+00 0.000000e+00 0
0.000000e+00 0.000000e+00 0
0.000000e+00 0.000000e+00 0
0.000000e+00 0.000000e+00 0
0.000000e+00 0.000000e+00 0
0.000000e+00 0.000000e+00 0
0.000000e+00 0.000000e+00 0
0.000000e+00 0.000000e+00 0
0.000000e+00 0.000000e+00 0
0.000000e+00 0.000000e+00 0
0.000000e+00 0.000000e+00 0
0.000000e+00 0.000000e+00 0
0.000000e+00 0.000000e+00 0
0.000000e+00 0.000000e+00 0
0.000000e+00 0.000000e+00 0
0.000000e+00 0.000000e+00 0
0.000000e+00 0.000000e+00 0
0.000000e+00 0.000000e+00 0
0.000000e+00 0.000000e+00 0
0.000000e+00 0.000000e+00 0
0.000000e+00 0.000000e+00 0
0.000000e+00 0.000000e+00 0
-1.638293e-17 0.000000e+00 0
0.000000e+00 0.000000e+00 0
0.000000e+00 0.000000e+00 0
0.000000e+00 0.000000e+00 0
4.541818e-17 0.000000e+00 0
0.000000e+00 0.000000e+00 0
0.000000e+00 0.000000e+00 0
0.000000e+00 0.000000e+00 0
9.232969e-17 0.000000e+00 0
0.000000e+00 0.000000e+00 0
0.000000e+00 0.000000e+00 0
0.000000e+00 0.000000e+00 0
-9.627372e-17 0.000000e+00 0
0.000000e+00 0.000000e+00 0
0.000000e+00 0.000000e+00 0
0.000000e+00 0.000000e+00 0
-7.470372e-17 0.000000e+00 0
0.000000e+00 0.000000e+00 0
0.000000e+00 0.000000e+00 0
0.000000e+00 0.000000e+00 0
-6.322121e-17 0.000000e+00 0
0.000000e+00 0.000000e+00 0
0.000000e+00 0.000000e+00 0
0.000000e+00 0.000000e+00 0
-5.966071e-17 0.000000e+00 0
0.000000e+00 0.000000e+00 0
0.000000e+00 0.000000e+00 0
0.000000e+00 0.000000e+00 0
-6.057760e-17 0.000000e+00 0
0.000000e+00 0.000000e+00 0
0.000000e+00 0.000000e+00 0
0.000000e+00 0.000000e+00 0
0.000000e+00 0.000000e+00 0
0.000000e+00 0.000000e+00 0
0.000000e+00 0.000000e+00 0
8.674130e-17 0.000000e+00 0
0.000000e+00 0.000000e+00 0
0.000000e+00 0.000000e+00 0
0.000000e+00 0.000000e+00 0
0.000000e+00 0.000000e+00 0
0.000000e+00 0.000000e+00 0
0.000000e+00 0.000000e+00 0
0.000000e+00 0.000000e+00 0
7.079787e-17 0.000000e+00 0
6.505102e+00 -1.558644e-02 0
6.516237e+00 -1.556099e-02 0
6.527345e+00 -1.549112e-02 0
6.538403e+00 -1.538673e-02 0
6.549390e+00 -1.525337e-02 0
6.560288e+00 -1.509468e-02 0
6.571080e+00 -1.491338e-02 0
6.581749e+00 -1.471164e-02 0
6.592281e+00 -1.449134e-02 0
6.602663e+00 -1.425416e-02 0
6.612882e+00 -1.400162e-02 0
6.622928e+00 -1.373514e-02 0
6.632790e+00 -1.345605e-02 0
6.642459e+00 -1.316559e-02 0
6.651926e+00 -1.286495e-02 0
6.661184e+00 -1.255526e-02 0
6.670225e+00 -1.223759e-02 0
6.679044e+00 -1.191296e-02 0
6.687635e+00 -1.158233e-02 0
6.695994e+00 -1.124663e-02 0
6.704116e+00 -1.090674e-02 0
6.711997e+00 -1.056349e-02 0
6.719636e+00 -1.021767e-02 0
6.727030e+00 -9.870038e-03 0
6.734177e+00 -9.521300e-03 0
6.741077e+00 -9.172135e-03 0
6.747728e+00 -8.823183e-03 0
6.754130e+00 -8.475050e-03 0
6.760284e+00 -8.128310e-03 0
6.766190e+00 -7.783503e-03 0
6.771850e+00 -7.441141e-03 0
6.777265e+00 -7.101709e-03 0
6.782437e+00 -6.765662e-03 0
6.787368e+00 -6.433430e-03 0
6.792061e+00 -6.105419e-03 0
6.796518e+00 -5.782011e-03 0
6.800744e+00 -5.463568e-03 0
6.804740e+00 -5.150428e-03 0
6.808512e+00 -4.842913e-03 0
6.812063e+00 -4.541324e-03 0
6.815398e+00 -4.245947e-03 0
6.818520e+00 -3.957050e-03 0
6.821434e+00 -3.674887e-03 0
6.824146e+00 -3.399701e-03 0
6.826659e+00 -3.131719e-03 0
6.828981e+00 -2.871162e-03 0
6.831115e+00 -2.618241e-03 0
6.833068e+00 -2.373159e-03 0
6.834844e+00 -2.136120e-03 0
6.836451e+00 -1.907327e-03 0
6.837894e+00 -1.686992e-03 0
6.839179e+00 -1.475341e-03 0
6.840313e+00 -1.272628e-03 0
6.841302e+00 -1.079156e-03 0
6.842154e+00 -8.953031e-04 0
6.842874e+00 -7.215793e-04 0
6.843470e+00 -5.587132e-04 0
6.843951e+00 -4.078201e-04 0
6.844325e+00 -2.707228e-04 0
6.844601e+00 -1.505741e-04 0
6.844787e+00 -5.346190e-05 0
6.844896e+00 1.602937e-05 0
6.844935e+00 7.187504e-05 0
6.844918e+00 1.277328e-04 0
6.844850e+00 1.808579e-04 0
6.844737e+00 2.289646e-04 0
6.844585e+00 2.717200e-04 0
6.844397e+00 3.092702e-04 0
6.844178e+00 3.418334e-04 0
6.843933e+00 3.695902e-04 0
6.843667e+00 3.926510e-04 0
6.843382e+00 4.110293e-04 0
6.843083e+00 4.245736e-04 0
6.842774e+00 4.327956e-04 0
6.842461e+00 4.343680e-04 0
6.842149e+00 4.258159e-04 0
6.841847e+00 3.911878e-04 0
6.841566e+00 3.325330e-04 0
6.841566e+00 3.010730e-04 0
1.211735e+01 -2.481364e-02 0
1.212426e+01 -2.478425e-02 0
1.213117e+01 -2.469939e-02 0
1.213806e+01 -2.456518e-02 0
1.214493e+01 -2.438670e-02 0
1.215176e+01 -2.416809e-02 0
1.215854e+01 -2.391283e-02 0
1.216527e+01 -2.362394e-02 0
1.217193e+01 -2.330414e-02 0
1.217851e+01 -2.295590e-02 0
1.218500e+01 -2.258153e-02 0
1.219141e+01 -2.218321e-02 0
1.219771e+01 -2.176300e-02 0
1.220391e+01 -2.132286e-02 0
1.221000e+01 -2.086469e-02 0
1.221596e+01 -2.039027e-02 0
1.222180e+01 -1.990134e-02 0
1.222752e+01 -1.939955e-02 0
1.223310e+01 -1.888649e-02 0
1.223854e+01 -1.836367e-02 0
1.224384e+01 -1.783254e-02 0
1.224900e+01 -1.729449e-02 0
1.225401e+01 -1.675085e-02 0
1.225887e+01 -1.620289e-02 0
1.226358e+01 -1.565180e-02 0
1.226814e+01 -1.509875e-02 0
1.227255e+01 -1.454482e-02 0
1.227681e+01 -1.399105e-02 0
1.228091e+01 -1.343843e-02 0
1.228485e+01 -1.288791e-02 0
1.228864e+01 -1.234037e-02 0
1.229228e+01 -1.179665e-02 0
1.229577e+01 -1.125756e-02 0
1.229910e+01 -1.072385e-02 0
1.230228e+01 -1.019623e-02 0
1.230531e+01 -9.675398e-03 0
1.230820e+01 -9.161979e-03 0
1.231094e+01 -8.656584e-03 0
1.231353e+01 -8.159783e-03 0
1.231598e+01 -7.672119e-03 0
1.231830e+01 -7.194102e-03 0
1.232048e+01 -6.726215e-03 0
1.232252e+01 -6.268916e-03 0
1.232444e+01 -5.822639e-03 0
1.232622e+01 -5.387795e-03 0
1.232789e+01 -4.964778e-03 0
1.232943e+01 -4.553964e-03 0
1.233085e+01 -4.155718e-03 0
1.233216e+01 -3.770397e-03 0
1.233336e+01 -3.398356e-03 0
1.233446e+01 -3.039954e-03 0
1.233545e+01 -2.695571e-03 0
1.233634e+01 -2.365615e-03 0
1.233714e+01 -2.050552e-03 0
1.233785e+01 -1.750926e-03 0
1.233847e+01 -1.467409e-03 0
1.233901e+01 -1.200851e-03 0
1.233948e+01 -9.523433e-04 0
1.233987e+01 -7.232569e-04 0
1.234020e+01 -5.151271e-04 0
1.234045e+01 -3.288472e-04 0
1.234064e+01 -1.641532e-04 0
1.234076e+01 -2.444437e-05 0
1.234082e+01 9.450242e-05 0
1.234083e+01 2.009773e-04 0
1.234080e+01 2.956678e-04 0
1.234073e+01 3.793399e-04 0
1.234063e+01 4.526629e-04 0
1.234050e+01 5.161568e-04 0
1.234034e+01 5.701900e-04 0
1.234017e+01 6.149789e-04 0
1.233998e+01 6.505597e-04 0
1.233977e+01 6.766886e-04 0
1.233956e+01 6.926125e-04 0
1.233934e+01 6.965636e-04 0
1.233912e+01 6.847278e-04 0
1.233890e+01 6.495876e-04 0
1.233867e+01 6.028484e-04 0
1.233867e+01 5.807373e-04 0
1.670918e+01 -3.099561e-02 0
1.671371e+01 -3.096381e-02 0
1.671824e+01 -3.087048e-02 0
1.672276e+01 -3.071985e-02 0
1.672726e+01 -3.051611e-02 0
1.673175e+01 -3.026315e-02 0
1.673621e+01 -2.996458e-02 0
1.674063e+01 -2.962371e-02 0
1.674502e+01 -2.924362e-02 0
1.674936e+01 -2.882721e-02 0
1.675364e+01 -2.837724e-02 0
1.675788e+01 -2.789633e-02 0
1.676205e+01 -2.738700e-02 0
1.676616e+01 -2.685167e-02 0
1.677019e+01 -2.629267e-02 0
1.677415e+01 -2.571225e-02 0
1.677803e+01 -2.511256e-02 0
1.678184e+01 -2.449567e-02 0
1.678555e+01 -2.386360e-02 0
1.678918e+01 -2.321825e-02 0
1.679272e+01 -2.256148e-02 0
1.679617e+01 -2.189505e-02 0
1.679952e+01 -2.122065e-02 0
1.680278e+01 -2.053992e-02 0
1.680594e+01 -1.985440e-02 0
1.680900e+01 -1.916557e-02 0
1.681196e+01 -1.847484e-02 0
1.681482e+01 -1.778357e-02 0
1.681758e+01 -1.709303e-02 0
1.682023e+01 -1.640445e-02 0
1.682279e+01 -1.571899e-02 0
1.682525e+01 -1.503776e-02 0
1.682760e+01 -1.436179e-02 0
1.682986e+01 -1.369208e-02 0
1.683201e+01 -1.302957e-02 0
1.683407e+01 -1.237516e-02 0
1.683603e+01 -1.172969e-02 0
1.683789e+01 -1.109396e-02 0
1.683966e+01 -1.046872e-02 0
1.684133e+01 -9.854687e-03 0
1.684291e+01 -9.252544e-03 0
1.684440e+01 -8.662928e-03 0
1.684580e+01 -8.086443e-03 0
1.684712e+01 -7.523665e-03 0
1.684835e+01 -6.975136e-03 0
1.684949e+01 -6.441376e-03 0
1.685056e+01 -5.922878e-03 0
1.685155e+01 -5.420120e-03 0
1.685246e+01 -4.933563e-03 0
1.685330e+01 -4.463660e-03 0
1.685406e+01 -4.010863e-03 0
1.685476e+01 -3.575636e-03 0
1.685540e+01 -3.158464e-03 0
1.685597e+01 -2.759872e-03 0
1.685647e+01 -2.380443e-03 0
1.685693e+01 -2.020842e-03 0
1.685732e+01 -1.681837e-03 0
1.685766e+01 -1.364299e-03 0
1.685795e+01 -1.069166e-03 0
1.685820e+01 -7.973099e-04 0
1.685839e+01 -5.492820e-04 0
1.685854e+01 -3.252266e-04 0
1.685864e+01 -1.250512e-04 0
1.685870e+01 5.108721e-05 0
1.685871e+01 2.054334e-04 0
1.685869e+01 3.417037e-04 0
1.685864e+01 4.618557e-04 0
1.685856e+01 5.670868e-04 0
1.685846e+01 6.581889e-04 0
1.685833e+01 7.356947e-04 0
1.685819e+01 7.999409e-04 0
1.685803e+01 8.510731e-04 0
1.685786e+01 8.889929e-04 0
1.685768e+01 9.132432e-04 0
1.685750e+01 9.228420e-04 0
1.685731e+01 9.162579e-04 0
1.685711e+01 8.922155e-04 0
1.685690e+01 8.560627e-04 0
1.685690e+01 8.363930e-04 0
2.028061e+01 -3.490881e-02 0
2.028328e+01 -3.487581e-02 0
2.028594e+01 -3.477831e-02 0
2.028860e+01 -3.461951e-02 0
2.029126e+01 -3.440286e-02 0
2.029390e+01 -3.413187e-02 0
2.029654e+01 -3.380998e-02 0
2.029915e+01 -3.344047e-02 0
2.030175e+01 -3.302656e-02 0
2.030433e+01 -3.257130e-02 0
2.030688e+01 -3.207767e-02 0
2.030940e+01 -3.154852e-02 0
2.031189e+01 -3.098662e-02 0
2.031434e+01 -3.039467e-02 0
2.031675e+01 -2.977524e-02 0
2.031912e+01 -2.913086e-02 0
2.032145e+01 -2.846395e-02 0
2.032374e+01 -2.777684e-02 0
2.032597e+01 -2.707181e-02 0
2.032816e+01 -2.635104e-02 0
2.033029e+01 -2.561661e-02 0
2.033238e+01 -2.487054e-02 0
2.033440e+01 -2.411478e-02 0
2.033638e+01 -2.335117e-02 0
2.033829e+01 -2.258149e-02 0
2.034015e+01 -2.180745e-02 0
2.034195e+01 -2.103068e-02 0
2.034370e+01 -2.025271e-02 0
2.034538e+01 -1.947504e-02 0
2.034700e+01 -1.869908e-02 0
2.034857e+01 -1.792616e-02 0
2.035007e+01 -1.715757e-02 0
2.035152e+01 -1.639453e-02 0
2.035290e+01 -1.563818e-02 0
2.035423e+01 -1.488962e-02 0
2.035550e+01 -1.414988e-02 0
2.035670e+01 -1.341996e-02 0
2.035786e+01 -1.270078e-02 0
2.035895e+01 -1.199323e-02 0
2.035999e+01 -1.129814e-02 0
2.036097e+01 -1.061630e-02 0
2.036190e+01 -9.948459e-03 0
2.036278e+01 -9.295324e-03 0
2.036360e+01 -8.657562e-03 0
2.036438e+01 -8.035809e-03 0
2.036510e+01 -7.430665e-03 0
2.036577e+01 -6.842702e-03 0
2.036640e+01 -6.272467e-03 0
2.036698e+01 -5.720485e-03 0
2.036752e+01 -5.187263e-03 0
2.036801e+01 -4.673301e-03 0
2.036846e+01 -4.179094e-03 0
2.036887e+01 -3.705146e-03 0
2.036925e+01 -3.251975e-03 0
2.036958e+01 -2.820128e-03 0
2.036988e+01 -2.410193e-03 0
2.037015e+01 -2.022793e-03 0
2.037038e+01 -1.658582e-03 0
2.037058e+01 -1.318198e-03 0
2.037074e+01 -1.002188e-03 0
2.037088e+01 -7.108959e-04 0
2.037098e+01 -4.443948e-04 0
2.037105e+01 -2.023010e-04 0
2.037109e+01 1.431910e-05 0
2.037111e+01 2.060917e-04 0
2.037109e+01 3.762218e-04 0
2.037105e+01 5.266342e-04 0
2.037098e+01 6.586001e-04 0
2.037090e+01 7.729824e-04 0
2.037080e+01 8.703887e-04 0
2.037068e+01 9.512601e-04 0
2.037056e+01 1.015916e-03 0
2.037042e+01 1.064571e-03 0
2.037027e+01 1.097351e-03 0
2.037012e+01 1.114361e-03 0
2.036996e+01 1.115943e-03 0
2.036979e+01 1.103671e-03 0
2.036962e+01 1.076421e-03 0
2.036962e+01 1.058446e-03 0
2.283163e+01 -3.693448e-02 0
2.283271e+01 -3.690140e-02 0
2.283379e+01 -3.680331e-02 0
2.283488e+01 -3.664277e-02 0
2.283596e+01 -3.642268e-02 0
2.283704e+01 -3.614613e-02 0
2.283812e+01 -3.581626e-02 0
2.283920e+01 -3.543623e-02 0
2.284028e+01 -3.500916e-02 0
2.284135e+01 -3.453810e-02 0
2.284242e+01 -3.402607e-02 0
2.284347e+01 -3.347600e-02 0
2.284452e+01 -3.289076e-02 0
2.284556e+01 -3.227313e-02 0
2.284659e+01 -3.162582e-02 0
2.284760e+01 -3.095149e-02 0
2.284860e+01 -3.025268e-02 0
2.284958e+01 -2.953187e-02 0
2.285054e+01 -2.879146e-02 0
2.285149e+01 -2.803376e-02 0
2.285242e+01 -2.726101e-02 0
2.285333e+01 -2.647535e-02 0
2.285422e+01 -2.567885e-02 0
2.285509e+01 -2.487350e-02 0
2.285593e+01 -2.406121e-02 0
2.285676e+01 -2.324378e-02 0
2.285756e+01 -2.242299e-02 0
2.285834e+01 -2.160048e-02 0
2.285909e+01 -2.077786e-02 0
2.285982e+01 -1.995664e-02 0
2.286052e+01 -1.913828e-02 0
2.286120e+01 -1.832415e-02 0
2.286186e+01 -1.751557e-02 0
2.286249e+01 -1.671379e-02 0
2.286310e+01 -1.591998e-02 0
2.286368e+01 -1.513528e-02 0
2.286424e+01 -1.436075e-02 0
2.286477e+01 -1.359740e-02 0
2.286528e+01 -1.284619e-02 0
2.286577e+01 -1.210802e-02 0
2.286623e+01 -1.138376e-02 0
2.286667e+01 -1.067421e-02 0
2.286708e+01 -9.980138e-03 0
2.286748e+01 -9.302270e-03 0
2.286785e+01 -8.641291e-03 0
2.286820e+01 -7.997848e-03 0
2.286853e+01 -7.372554e-03 0
2.286883e+01 -6.765992e-03 0
2.286912e+01 -6.178713e-03 0
2.286939e+01 -5.611247e-03 0
2.286964e+01 -5.064101e-03 0
2.286987e+01 -4.537764e-03 0
2.287008e+01 -4.032717e-03 0
2.287028e+01 -3.549432e-03 0
2.287046e+01 -3.088382e-03 0
2.287062e+01 -2.650040e-03 0
2.287076e+01 -2.234879e-03 0
2.287089e+01 -1.843358e-03 0
2.287100e+01 -1.475903e-03 0
2.287110e+01 -1.132869e-03 0
2.287117e+01 -8.144944e-04 0
2.287123e+01 -5.208805e-04 0
2.287127e+01 -2.519361e-04 0
2.287130e+01 -8.256734e-06 0
2.287130e+01 2.103748e-04 0
2.287128e+01 4.057374e-04 0
2.287125e+01 5.792844e-04 0
2.287119e+01 7.320241e-04 0
2.287113e+01 8.646819e-04 0
2.287105e+01 9.778206e-04 0
2.287096e+01 1.071929e-03 0
2.287086e+01 1.147488e-03 0
2.287075e+01 1.205038e-03 0
2.287064e+01 1.245264e-03 0
2.287052e+01 1.269143e-03 0
2.287040e+01 1.278162e-03 0
2.287027e+01 1.275252e-03 0
2.287013e+01 1.254513e-03 0
2.287013e+01 1.237705e-03 0
2.436224e+01 -3.731564e-02 0
2.436193e+01 -3.728349e-02 0
2.436162e+01 -3.718797e-02 0
2.436131e+01 -3.703117e-02 0
2.436101e+01 -3.681554e-02 0
2.436071e+01 -3.654376e-02 0
2.436043e+01 -3.621864e-02 0
2.436015e+01 -3.584310e-02 0
2.435989e+01 -3.542007e-02 0
2.435963e+01 -3.495248e-02 0
2.435939e+01 -3.444326e-02 0
2.435915e+01 -3.389528e-02 0
2.435893e+01 -3.331136e-02 0
2.435872e+01 -3.269429e-02 0
2.435852e+01 -3.204678e-02 0
2.435833e+01 -3.137146e-02 0
2.435815e+01 -3.067092e-02 0
2.435798e+01 -2.994765e-02 0
2.435782e+01 -2.920408e-02 0
2.435767e+01 -2.844254e-02 0
2.435752e+01 -2.766531e-02 0
2.435739e+01 -2.687457e-02 0
2.435727e+01 -2.607242e-02 0
2.435716e+01 -2.526088e-02 0
2.435705e+01 -2.444189e-02 0
2.435695e+01 -2.361732e-02 0
2.435686e+01 -2.278896e-02 0
2.435678e+01 -2.195850e-02 0
2.435671e+01 -2.112758e-02 0
2.435664e+01 -2.029775e-02 0
2.435658e+01 -1.947051e-02 0
2.435653e+01 -1.864727e-02 0
2.435648e+01 -1.782938e-02 0
2.435644e+01 -1.701811e-02 0
2.435640e+01 -1.621469e-02 0
2.435637e+01 -1.542027e-02 0
2.435634e+01 -1.463595e-02 0
2.435632e+01 -1.386278e-02 0
2.435631e+01 -1.310173e-02 0
2.435630e+01 -1.235373e-02 0
2.435629e+01 -1.161968e-02 0
2.435629e+01 -1.090041e-02 0
2.435629e+01 -1.019670e-02 0
2.435629e+01 -9.509305e-03 0
2.435630e+01 -8.838917e-03 0
2.435632e+01 -8.186201e-03 0
2.435633e+01 -7.551782e-03 0
2.435635e+01 -6.936245e-03 0
2.435637e+01 -6.340143e-03 0
2.435640e+01 -5.763994e-03 0
2.435642e+01 -5.208288e-03 0
2.435645e+01 -4.673481e-03 0
2.435648e+01 -4.160004e-03 0
2.435652e+01 -3.668257e-03 0
2.435655e+01 -3.198617e-03 0
2.435658e+01 -2.751429e-03 0
2.435662e+01 -2.327012e-03 0
2.435665e+01 -1.925652e-03 0
2.435668e+01 -1.547598e-03 0
2.435670e+01 -1.193058e-03 0
2.435673e+01 -8.622037e-04 0
2.435674e+01 -5.551709e-04 0
2.435675e+01 -2.720861e-04 0
2.435675e+01 -1.313511e-05 0
2.435674e+01 2.218816e-04 0
2.435673e+01 4.336647e-04 0
2.435669e+01 6.228822e-04 0
2.435665e+01 7.900493e-04 0
2.435660e+01 9.355876e-04 0
2.435654e+01 1.059891e-03 0
2.435648e+01 1.163395e-03 0
2.435641e+01 1.246649e-03 0
2.435633e+01 1.310408e-03 0
2.435625e+01 1.355750e-03 0
2.435617e+01 1.384224e-03 0
2.435608e+01 1.398000e-03 0
2.435599e+01 1.400778e-03 0
2.435590e+01 1.383413e-03 0
2.435590e+01 1.366795e-03 0
2.487245e+01 -3.623157e-02 0
2.487088e+01 -3.620129e-02 0
2.486932e+01 -3.611119e-02 0
2.486777e+01 -3.596297e-02 0
2.486623e+01 -3.575867e-02 0
2.486470e+01 -3.550058e-02 0
2.486319e+01 -3.519117e-02 0
2.486170e+01 -3.483305e-02 0
2.486024e+01 -3.442890e-02 0
2.485879e+01 -3.398143e-02 0
2.485737e+01 -3.349336e-02 0
2.485598e+01 -3.296742e-02 0
2.485462e+01 -3.240631e-02 0
2.485328e+01 -3.181266e-02 0
2.485198e+01 -3.118909e-02 0
2.485071e+01 -3.053815e-02 0
2.484947e+01 -2.986233e-02 0
2.484826e+01 -2.916404e-02 0
2.484709e+01 -2.844564e-02 0
2.484595e+01 -2.770940e-02 0
2.484485e+01 -2.695754e-02 0
2.484378e+01 -2.619218e-02 0
2.484275e+01 -2.541538e-02 0
2.484175e+01 -2.462910e-02 0
2.484079e+01 -2.383525e-02 0
2.483986e+01 -2.303566e-02 0
2.483896e+01 -2.223207e-02 0
2.483811e+01 -2.142615e-02 0
2.483729e+01 -2.061950e-02 0
2.483650e+01 -1.981366e-02 0
2.483574e+01 -1.901009e-02 0
2.483503e+01 -1.821017e-02 0
2.483434e+01 -1.741522e-02 0
2.483369e+01 -1.662653e-02 0
2.483307e+01 -1.584527e-02 0
2.483248e+01 -1.507259e-02 0
2.483193e+01 -1.430957e-02 0
2.483141e+01 -1.355724e-02 0
2.483092e+01 -1.281657e-02 0
2.483045e+01 -1.208847e-02 0
2.483002e+01 -1.137382e-02 0
2.482962e+01 -1.067345e-02 0
2.482924e+01 -9.988112e-03 0
2.482890e+01 -9.318555e-03 0
2.482858e+01 -8.665464e-03 0
2.482828e+01 -8.029484e-03 0
2.482801e+01 -7.411222e-03 0
2.482777e+01 -6.811245e-03 0
2.482754e+01 -6.230080e-03 0
2.482734e+01 -5.668215e-03 0
2.482717e+01 -5.126100e-03 0
2.482701e+01 -4.604140e-03 0
2.482687e+01 -4.102699e-03 0
2.482675e+01 -3.622093e-03 0
2.482665e+01 -3.162591e-03 0
2.482657e+01 -2.724406e-03 0
2.482650e+01 -2.307699e-03 0
2.482644e+01 -1.912581e-03 0
2.482640e+01 -1.539128e-03 0
2.482636e+01 -1.187402e-03 0
2.482633e+01 -8.574827e-04 0
2.482631e+01 -5.495184e-04 0
2.482629e+01 -2.637746e-04 0
2.482627e+01 -1.343115e-07 0
2.482625e+01 2.416276e-04 0
2.482623e+01 4.613197e-04 0
2.482620e+01 6.587514e-04 0
2.482617e+01 8.338409e-04 0
2.482614e+01 9.865992e-04 0
2.482610e+01 1.117148e-03 0
2.482606e+01 1.225764e-03 0
2.482602e+01 1.312941e-03 0
2.482597e+01 1.379491e-03 0
2.482593e+01 1.426667e-03 0
2.482588e+01 1.456320e-03 0
2.482584e+01 1.471017e-03 0
2.482580e+01 1.475015e-03 0
2.482576e+01 1.457209e-03 0
2.482576e+01 1.439380e-03 0
2.436224e+01 -3.382905e-02 0
2.435956e+01 -3.380148e-02 0
2.435687e+01 -3.371938e-02 0
2.435420e+01 -3.358406e-02 0
2.435154e+01 -3.339719e-02 0
2.434891e+01 -3.316066e-02 0
2.434630e+01 -3.287660e-02 0
2.434371e+01 -3.254726e-02 0
2.434116e+01 -3.217500e-02 0
2.433865e+01 -3.176227e-02 0
2.433617e+01 -3.131151e-02 0
2.433373e+01 -3.082522e-02 0
2.433134e+01 -3.030585e-02 0
2.432900e+01 -2.975585e-02 0
2.432670e+01 -2.917763e-02 0
2.432445e+01 -2.857355e-02 0
2.432226e+01 -2.794593e-02 0
2.432011e+01 -2.729702e-02 0
2.431803e+01 -2.662902e-02 0
2.431600e+01 -2.594406e-02 0
2.431402e+01 -2.524420e-02 0
2.431210e+01 -2.453144e-02 0
2.431025e+01 -2.380769e-02 0
2.430845e+01 -2.307483e-02 0
2.430671e+01 -2.233462e-02 0
2.430503e+01 -2.158879e-02 0
2.430341e+01 -2.083898e-02 0
2.430185e+01 -2.008675e-02 0
2.430035e+01 -1.933363e-02 0
2.429891e+01 -1.858105e-02 0
2.429753e+01 -1.783039e-02 0
2.429621e+01 -1.708296e-02 0
2.429494e+01 -1.634001e-02 0
2.429374e+01 -1.560273e-02 0
2.429259e+01 -1.487226e-02 0
2.429150e+01 -1.414966e-02 0
2.429047e+01 -1.343597e-02 0
2.428949e+01 -1.273214e-02 0
2.428856e+01 -1.203910e-02 0
2.428769e+01 -1.135773e-02 0
2.428687e+01 -1.068883e-02 0
2.428610e+01 -1.003318e-02 0
2.428538e+01 -9.391526e-03 0
2.428471e+01 -8.764548e-03 0
2.428409e+01 -8.152895e-03 0
2.428352e+01 -7.557173e-03 0
2.428299e+01 -6.977948e-03 0
2.428250e+01 -6.415747e-03 0
2.428206e+01 -5.871052e-03 0
2.428165e+01 -5.344305e-03 0
2.428129e+01 -4.835900e-03 0
2.428096e+01 -4.346184e-03 0
2.428067e+01 -3.875446e-03 0
2.428041e+01 -3.423913e-03 0
2.428019e+01 -2.991745e-03 0
2.428000e+01 -2.579020e-03 0
2.427983e+01 -2.185738e-03 0
2.427969e+01 -1.811827e-03 0
2.427958e+01 -1.457158e-03 0
2.427949e+01 -1.121603e-03 0