<?xml version="1.0"?>
<VTKFile type="StructuredGrid">
<StructuredGrid WholeExtent="0 78 0 14 0 0 ">
<Piece Extent="0 78 0 14 0 0 ">
<Points>
<DataArray type="Float64" format="ascii" NumberOfComponents="3">
0.000000e+00 0.000000e+00 0.000000e+00
6.410256e-02 0.000000e+00 0.000000e+00
1.282051e-01 0.000000e+00 0.000000e+00
1.923077e-01 0.000000e+00 0.000000e+00
2.564103e-01 0.000000e+00 0.000000e+00
3.205128e-01 0.000000e+00 0.000000e+00
3.846154e-01 0.000000e+00 0.000000e+00
4.487179e-01 0.000000e+00 0.000000e+00
5.128205e-01 0.000000e+00 0.000000e+00
5.769231e-01 0.000000e+00 0.000000e+00
6.410256e-01 0.000000e+00 0.000000e+00
7.051282e-01 0.000000e+00 0.000000e+00
7.692308e-01 0.000000e+00 0.000000e+00
8.333333e-01 0.000000e+00 0.000000e+00
8.974359e-01 0.000000e+00 0.000000e+00
9.615385e-01 0.000000e+00 0.000000e+00
1.025641e+00 0.000000e+00 0.000000e+00
1.089744e+00 0.000000e+00 0.000000e+00
1.153846e+00 0.000000e+00 0.000000e+00
1.217949e+00 0.000000e+00 0.000000e+00
1.282051e+00 0.000000e+00 0.000000e+00
1.346154e+00 0.000000e+00 0.000000e+00
1.410256e+00 0.000000e+00 0.000000e+00
1.474359e+00 0.000000e+00 0.000000e+00
1.538462e+00 0.000000e+00 0.000000e+00
1.602564e+00 0.000000e+00 0.000000e+00
1.666667e+00 0.000000e+00 0.000000e+00
1.730769e+00 0.000000e+00 0.000000e+00
1.794872e+00 0.000000e+00 0.000000e+00
1.858974e+00 0.000000e+00 0.000000e+00
1.923077e+00 0.000000e+00 0.000000e+00
1.987179e+00 0.000000e+00 0.000000e+00
2.051282e+00 0.000000e+00 0.000000e+00
2.115385e+00 0.000000e+00 0.000000e+00
2.179487e+00 0.000000e+00 0.000000e+00
2.243590e+00 0.000000e+00 0.000000e+00
2.307692e+00 0.000000e+00 0.000000e+00
2.371795e+00 0.000000e+00 0.000000e+00
2.435897e+00 0.000000e+00 0.000000e+00
2.500000e+00 0.000000e+00 0.000000e+00
2.564103e+00 0.000000e+00 0.000000e+00
2.628205e+00 0.000000e+00 0.000000e+00
2.692308e+00 0.000000e+00 0.000000e+00
2.756410e+00 0.000000e+00 0.000000e+00
2.820513e+00 0.000000e+00 0.000000e+00
2.884615e+00 0.000000e+00 0.000000e+00
2.948718e+00 0.000000e+00 0.000000e+00
3.012821e+00 0.000000e+00 0.000000e+00
3.076923e+00 0.000000e+00 0.000000e+00
3.141026e+00 0.000000e+00 0.000000e+00
3.205128e+00 0.000000e+00 0.000000e+00
3.269231e+00 0.000000e+00 0.000000e+00
3.333333e+00 0.000000e+00 0.000000e+00
3.397436e+00 0.000000e+00 0.000000e+00
3.461538e+00 0.000000e+00 0.000000e+00
3.525641e+00 0.000000e+00 0.000000e+00
3.589744e+00 0.000000e+00 0.000000e+00
3.653846e+00 0.000000e+00 0.000000e+00
3.717949e+00 0.000000e+00 0.000000e+00
3.782051e+00 0.000000e+00 0.000000e+00
3.846154e+00 0.000000e+00 0.000000e+00
3.910256e+00 0.000000e+00 0.000000e+00
3.974359e+00 0.000000e+00 0.000000e+00
4.038462e+00 0.000000e+00 0.000000e+00
4.102564e+00 0.000000e+00 0.000000e+00
4.166667e+00 0.000000e+00 0.000000e+00
4.230769e+00 0.000000e+00 0.000000e+00
4.294872e+00 0.000000e+00 0.000000e+00
4.358974e+00 0.000000e+00 0.000000e+00
4.423077e+00 0.000000e+00 0.000000e+00
4.487179e+00 0.000000e+00 0.000000e+00
4.551282e+00 0.000000e+00 0.000000e+00
4.615385e+00 0.000000e+00 0.000000e+00
4.679487e+00 0.000000e+00 0.000000e+00
4.743590e+00 0.000000e+00 0.000000e+00
4.807692e+00 0.000000e+00 0.000000e+00
4.871795e+00 0.000000e+00 0.000000e+00
4.935897e+00 0.000000e+00 0.000000e+00
5.000000e+00 0.000000e+00 0.000000e+00
0.000000e+00 7.142857e-02 0.000000e+00
6.410256e-02 7.142857e-02 0.000000e+00
1.282051e-01 7.142857e-02 0.000000e+00
1.923077e-01 7.142857e-02 0.000000e+00
2.564103e-01 7.142857e-02 0.000000e+00
3.205128e-01 7.142857e-02 0.000000e+00
3.846154e-01 7.142857e-02 0.000000e+00
4.487179e-01 7.142857e-02 0.000000e+00
5.128205e-01 7.142857e-02 0.000000e+00
5.769231e-01 7.142857e-02 0.000000e+00
6.410256e-01 7.142857e-02 0.000000e+00
7.051282e-01 7.142857e-02 0.000000e+00
7.692308e-01 7.142857e-02 0.000000e+00
8.333333e-01 7.142857e-02 0.000000e+00
8.974359e-01 7.142857e-02 0.000000e+00
9.615385e-01 7.142857e-02 0.000000e+00
1.025641e+00 7.142857e-02 0.000000e+00
1.089744e+00 7.142857e-02 0.000000e+00
1.153846e+00 7.142857e-02 0.000000e+00
1.217949e+00 7.142857e-02 0.000000e+00
1.282051e+00 7.142857e-02 0.000000e+00
1.346154e+00 7.142857e-02 0.000000e+00
1.410256e+00 7.142857e-02 0.000000e+00
1.474359e+00 7.142857e-02 0.000000e+00
1.538462e+00 7.142857e-02 0.000000e+00
1.602564e+00 7.142857e-02 0.000000e+00
1.666667e+00 7.142857e-02 0.000000e+00
1.730769e+00 7.142857e-02 0.000000e+00
1.794872e+00 7.142857e-02 0.000000e+00
1.858974e+00 7.142857e-02 0.000000e+00
1.923077e+00 7.142857e-02 0.000000e+00
1.987179e+00 7.142857e-02 0.000000e+00
2.051282e+00 7.142857e-02 0.000000e+00
2.115385e+00 7.142857e-02 0.000000e+00
2.179487e+00 7.142857e-02 0.000000e+00
2.243590e+00 7.142857e-02 0.000000e+00
2.307692e+00 7.142857e-02 0.000000e+00
2.371795e+00 7.142857e-02 0.000000e+00
2.435897e+00 7.142857e-02 0.000000e+00
2.500000e+00 7.142857e-02 0.000000e+00
2.564103e+00 7.142857e-02 0.000000e+00
2.628205e+00 7.142857e-02 0.000000e+00
2.692308e+00 7.142857e-02 0.000000e+00
2.756410e+00 7.142857e-02 0.000000e+00
2.820513e+00 7.142857e-02 0.000000e+00
2.884615e+00 7.142857e-02 0.000000e+00
2.948718e+00 7.142857e-02 0.000000e+00
3.012821e+00 7.142857e-02 0.000000e+00
3.076923e+00 7.142857e-02 0.000000e+00
3.141026e+00 7.142857e-02 0.000000e+00
3.205128e+00 7.142857e-02 0.000000e+00
3.269231e+00 7.142857e-02 0.000000e+00
3.333333e+00 7.142857e-02 0.000000e+00
3.397436e+00 7.142857e-02 0.000000e+00
3.461538e+00 7.142857e-02 0.000000e+00
3.525641e+00 7.142857e-02 0.000000e+00
3.589744e+00 7.142857e-02 0.000000e+00
3.653846e+00 7.142857e-02 0.000000e+00
3.717949e+00 7.142857e-02 0.000000e+00
3.782051e+00 7.142857e-02 0.000000e+00
3.846154e+00 7.142857e-02 0.000000e+00
3.910256e+00 7.142857e-02 0.000000e+00
3.974359e+00 7.142857e-02 0.000000e+00
4.038462e+00 7.142857e-02 0.000000e+00
4.102564e+00 7.142857e-02 0.000000e+00
4.166667e+00 7.142857e-02 0.000000e+00
4.230769e+00 7.142857e-02 0.000000e+00
4.294872e+00 7.142857e-02 0.000000e+00
4.358974e+00 7.142857e-02 0.000000e+00
4.423077e+00 7.142857e-02 0.000000e+00
4.487179e+00 7.142857e-02 0.000000e+00
4.551282e+00 7.142857e-02 0.000000e+00
4.615385e+00 7.142857e-02 0.000000e+00
4.679487e+00 7.142857e-02 0.000000e+00
4.743590e+00 7.142857e-02 0.000000e+00
4.807692e+00 7.142857e-02 0.000000e+00
4.871795e+00 7.142857e-02 0.000000e+00
4.935897e+00 7.142857e-02 0.000000e+00
5.000000e+00 7.142857e-02 0.000000e+00
0.000000e+00 1.428571e-01 0.000000e+00
6.410256e-02 1.428571e-01 0.000000e+00
1.282051e-01 1.428571e-01 0.000000e+00
1.923077e-01 1.428571e-01 0.000000e+00
2.564103e-01 1.428571e-01 0.000000e+00
3.205128e-01 1.428571e-01 0.000000e+00
3.846154e-01 1.428571e-01 0.000000e+00
4.487179e-01 1.428571e-01 0.000000e+00
5.128205e-01 1.428571e-01 0.000000e+00
5.769231e-01 1.428571e-01 0.000000e+00
6.410256e-01 1.428571e-01 0.000000e+00
7.051282e-01 1.428571e-01 0.000000e+00
7.692308e-01 1.428571e-01 0.000000e+00
8.333333e-01 1.428571e-01 0.000000e+00
8.974359e-01 1.428571e-01 0.000000e+00
9.615385e-01 1.428571e-01 0.000000e+00
1.025641e+00 1.428571e-01 0.000000e+00
1.089744e+00 1.428571e-01 0.000000e+00
1.153846e+00 1.428571e-01 0.000000e+00
1.217949e+00 1.428571e-01 0.000000e+00
1.282051e+00 1.428571e-01 0.000000e+00
1.346154e+00 1.428571e-01 0.000000e+00
1.410256e+00 1.428571e-01 0.000000e+00
1.474359e+00 1.428571e-01 0.000000e+00
1.538462e+00 1.428571e-01 0.000000e+00
1.602564e+00 1.428571e-01 0.000000e+00
1.666667e+00 1.428571e-01 0.000000e+00
1.730769e+00 1.428571e-01 0.000000e+00
1.794872e+00 1.428571e-01 0.000000e+00
1.858974e+00 1.428571e-01 0.000000e+00
1.923077e+00 1.428571e-01 0.000000e+00
1.987179e+00 1.428571e-01 0.000000e+00
2.051282e+00 1.428571e-01 0.000000e+00
2.115385e+00 1.428571e-01 0.000000e+00
2.179487e+00 1.428571e-01 0.000000e+00
2.243590e+00 1.428571e-01 0.000000e+00
2.307692e+00 1.428571e-01 0.000000e+00
2.371795e+00 1.428571e-01 0.000000e+00
2.435897e+00 1.428571e-01 0.000000e+00
2.500000e+00 1.428571e-01 0.000000e+00
2.564103e+00 1.428571e-01 0.000000e+00
2.628205e+00 1.428571e-01 0.000000e+00
2.692308e+00 1.428571e-01 0.000000e+00
2.756410e+00 1.428571e-01 0.000000e+00
2.820513e+00 1.428571e-01 0.000000e+00
2.884615e+00 1.428571e-01 0.000000e+00
2.948718e+00 1.428571e-01 0.000000e+00
3.012821e+00 1.428571e-01 0.000000e+00
3.076923e+00 1.428571e-01 0.000000e+00
3.141026e+00 1.428571e-01 0.000000e+00
3.205128e+00 1.428571e-01 0.000000e+00
3.269231e+00 1.428571e-01 0.000000e+00
3.333333e+00 1.428571e-01 0.000000e+00
3.397436e+00 1.428571e-01 0.000000e+00
3.461538e+00 1.428571e-01 0.000000e+00
3.525641e+00 1.428571e-01 0.000000e+00
3.589744e+00 1.428571e-01 0.000000e+00
3.653846e+00 1.428571e-01 0.000000e+00
3.717949e+00 1.428571e-01 0.000000e+00
3.782051e+00 1.428571e-01 0.000000e+00
3.846154e+00 1.428571e-01 0.000000e+00
3.910256e+00 1.428571e-01 0.000000e+00
3.974359e+00 1.428571e-01 0.000000e+00
4.038462e+00 1.428571e-01 0.000000e+00
4.102564e+00 1.428571e-01 0.000000e+00
4.166667e+00 1.428571e-01 0.000000e+00
4.230769e+00 1.428571e-01 0.000000e+00
4.294872e+00 1.428571e-01 0.000000e+00
4.358974e+00 1.428571e-01 0.000000e+00
4.423077e+00 1.428571e-01 0.000000e+00
4.487179e+00 1.428571e-01 0.000000e+00
4.551282e+00 1.428571e-01 0.000000e+00
4.615385e+00 1.428571e-01 0.000000e+00
4.679487e+00 1.428571e-01 0.000000e+00
4.743590e+00 1.428571e-01 0.000000e+00
4.807692e+00 1.428571e-01 0.000000e+00
4.871795e+00 1.428571e-01 0.000000e+00
4.935897e+00 1.428571e-01 0.000000e+00
5.000000e+00 1.428571e-01 0.000000e+00
0.000000e+00 2.142857e-01 0.000000e+00
6.410256e-02 2.142857e-01 0.000000e+00
1.282051e-01 2.142857e-01 0.000000e+00
1.923077e-01 2.142857e-01 0.000000e+00
2.564103e-01 2.142857e-01 0.000000e+00
3.205128e-01 2.142857e-01 0.000000e+00
3.846154e-01 2.142857e-01 0.000000e+00
4.487179e-01 2.142857e-01 0.000000e+00
5.128205e-01 2.142857e-01 0.000000e+00
5.769231e-01 2.142857e-01 0.000000e+00
6.410256e-01 2.142857e-01 0.000000e+00
7.051282e-01 2.142857e-01 0.000000e+00
7.692308e-01 2.142857e-01 0.000000e+00
8.333333e-01 2.142857e-01 0.000000e+00
[...]
<PointData>
<DataArray Name="Velocity" type="Float64" format="ascii" NumberOfComponents="3">
0.000000e+00 0.000000e+00 0
0.000000e+00 0.000000e+00 0
0.000000e+00 0.000000e+00 0
0.000000e+00 0.000000e+00 0
0.000000e+00 0.000000e+00 0
0.000000e+00 0.000000e+00 0
0.000000e+00 0.000000e+00 0
0.000000e+00 0.000000e+00 0
0.000000e+00 0.000000e+00 0
0.000000e+00 0.000000e+00 0
0.000000e+00 0.000000e+00 0
0.000000e+00 0.000000e+00 0
0.000000e+00 0.000000e+00 0
0.000000e+00 0.000000e+00 0
0.000000e+00 0.000000e+00 0
0.000000e+00 0.000000e+00 0
0.000000e+00 0.000000e+00 0
0.000000e+00 0.000000e+00 0
0.000000e+00 0.000000e+00 0
0.000000e+00 0.000000e+00 0
0.000000e+00 0.000000e+00 0
0.000000e+00 0.000000e+00 0
0.000000e+00 0.000000e+00 0
0.000000e+00 0.000000e+00 0
0.000000e+00 0.000000e+00 0
0.000000e+00 0.000000e+00 0
0.000000e+00 0.000000e+00 0
0.000000e+00 0.000000e+00 0
0.000000e+00 0.000000e+00 0
0.000000e+00 0.000000e+00 0
0.000000e+00 0.000000e+00 0
0.000000e+00 0.000000e+00 0
0.000000e+00 0.000000e+00 0
0.000000e+00 0.000000e+00 0
0.000000e+00 0.000000e+00 0
-1.869066e-17 0.000000e+00 0
0.000000e+00 0.000000e+00 0
0.000000e+00 0.000000e+00 0
0.000000e+00 0.000000e+00 0
-1.870028e-17 0.000000e+00 0
0.000000e+00 0.000000e+00 0
0.000000e+00 0.000000e+00 0
0.000000e+00 0.000000e+00 0
-1.871063e-17 0.000000e+00 0
0.000000e+00 0.000000e+00 0
0.000000e+00 0.000000e+00 0
0.000000e+00 0.000000e+00 0
-1.871981e-17 0.000000e+00 0
0.000000e+00 0.000000e+00 0
0.000000e+00 0.000000e+00 0
0.000000e+00 0.000000e+00 0
-1.873060e-17 0.000000e+00 0
0.000000e+00 0.000000e+00 0
0.000000e+00 0.000000e+00 0
0.000000e+00 0.000000e+00 0
-1.874242e-17 0.000000e+00 0
0.000000e+00 0.000000e+00 0
0.000000e+00 0.000000e+00 0
0.000000e+00 0.000000e+00 0
-1.875277e-17 0.000000e+00 0
0.000000e+00 0.000000e+00 0
0.000000e+00 0.000000e+00 0
0.000000e+00 0.000000e+00 0
-1.876144e-17 0.000000e+00 0
0.000000e+00 0.000000e+00 0
0.000000e+00 0.000000e+00 0
0.000000e+00 0.000000e+00 0
0.000000e+00 0.000000e+00 0
0.000000e+00 0.000000e+00 0
0.000000e+00 0.000000e+00 0
1.796793e-17 0.000000e+00 0
0.000000e+00 0.000000e+00 0
0.000000e+00 0.000000e+00 0
0.000000e+00 0.000000e+00 0
0.000000e+00 0.000000e+00 0
0.000000e+00 0.000000e+00 0
0.000000e+00 0.000000e+00 0
0.000000e+00 0.000000e+00 0
1.795929e-17 0.000000e+00 0
7.015997e-01 -2.385492e-06 0
7.015997e-01 -3.047244e-06 0
7.016012e-01 -2.518019e-06 0
7.016049e-01 5.504270e-07 0
7.016069e-01 2.880577e-06 0
7.016060e-01 2.121222e-06 0
7.016040e-01 -5.049891e-07 0
7.016029e-01 -2.301796e-06 0
7.016031e-01 -2.052239e-06 0
7.016040e-01 -5.489713e-07 0
7.016046e-01 6.691626e-07 0
7.016045e-01 7.683019e-07 0
7.016039e-01 1.329585e-07 0
7.016031e-01 -4.009519e-07 0
7.016026e-01 -4.070383e-07 0
7.016025e-01 -2.881413e-09 0
7.016026e-01 4.406415e-07 0
7.016026e-01 6.007617e-07 0
7.016023e-01 4.165447e-07 0
7.016018e-01 1.014876e-07 0
7.016014e-01 -7.005995e-08 0
7.016013e-01 1.633714e-08 0
7.016014e-01 2.488157e-07 0
7.016014e-01 3.990190e-07 0
7.016011e-01 3.451722e-07 0
7.016009e-01 1.849640e-07 0
7.016007e-01 1.084002e-07 0
7.016008e-01 1.923473e-07 0
7.016008e-01 3.475539e-07 0
7.016008e-01 4.417299e-07 0
7.016005e-01 4.370024e-07 0
7.016003e-01 4.026216e-07 0
7.016001e-01 4.203701e-07 0
7.015999e-01 5.012240e-07 0
7.015997e-01 5.910221e-07 0
7.015993e-01 6.372486e-07 0
7.015989e-01 6.387432e-07 0
7.015985e-01 6.363252e-07 0
7.015981e-01 6.663482e-07 0
7.015976e-01 7.270757e-07 0
7.015971e-01 7.849809e-07 0
7.015966e-01 8.068873e-07 0
7.015961e-01 7.853366e-07 0
7.015957e-01 7.389048e-07 0
7.015952e-01 6.946748e-07 0
7.015948e-01 6.709957e-07 0
7.015944e-01 6.716290e-07 0
7.015941e-01 6.905554e-07 0
7.015937e-01 7.203287e-07 0
7.015933e-01 7.570668e-07 0
7.015928e-01 7.991668e-07 0
7.015923e-01 8.426963e-07 0
7.015918e-01 8.792957e-07 0
7.015913e-01 8.997289e-07 0
7.015907e-01 8.995768e-07 0
7.015902e-01 8.810386e-07 0
7.015897e-01 8.503300e-07 0
7.015891e-01 8.140910e-07 0
7.015886e-01 7.772993e-07 0
7.015881e-01 7.428807e-07 0
7.015877e-01 7.117212e-07 0
7.015872e-01 6.827512e-07 0
7.015868e-01 6.537887e-07 0
7.015864e-01 6.224685e-07 0
7.015861e-01 5.874158e-07 0
7.015858e-01 5.482809e-07 0
7.015856e-01 5.060173e-07 0
7.015854e-01 4.615042e-07 0
7.015852e-01 4.167878e-07 0
7.015851e-01 3.735269e-07 0
7.015851e-01 3.303155e-07 0
7.015851e-01 2.871645e-07 0
7.015852e-01 2.481127e-07 0
7.015853e-01 2.187040e-07 0
7.015855e-01 2.028656e-07 0
7.015856e-01 2.009328e-07 0
7.015857e-01 2.144650e-07 0
7.015858e-01 1.409052e-07 0
7.015858e-01 5.600478e-08 0
9.230946e-01 -9.005401e-07 0
9.230946e-01 -1.294663e-07 0
9.230988e-01 1.991865e-06 0
9.231017e-01 3.891503e-06 0
9.231018e-01 3.406400e-06 0
9.231005e-01 8.420004e-07 0
9.230996e-01 -1.371261e-06 0
9.230999e-01 -1.588836e-06 0
9.231009e-01 -2.570229e-07 0
9.231018e-01 9.949469e-07 0
9.231022e-01 1.099509e-06 0
9.231021e-01 3.355161e-07 0
9.231018e-01 -3.427944e-07 0
9.231015e-01 -3.727065e-07 0
9.231016e-01 8.286657e-08 0
9.231020e-01 5.422043e-07 0
9.231023e-01 6.825619e-07 0
9.231024e-01 5.017818e-07 0
9.231021e-01 2.106226e-07 0
9.231018e-01 3.798105e-08 0
9.231017e-01 8.445634e-08 0
9.231018e-01 2.708363e-07 0
9.231019e-01 3.996330e-07 0
9.231016e-01 3.293338e-07 0
9.231013e-01 1.164146e-07 0
9.231011e-01 -4.659918e-08 0
9.231011e-01 -3.525767e-08 0
9.231012e-01 9.868953e-08 0
9.231012e-01 2.175832e-07 0
9.231010e-01 2.513570e-07 0
9.231009e-01 2.457363e-07 0
9.231008e-01 2.853187e-07 0
9.231008e-01 3.994175e-07 0
9.231008e-01 5.457346e-07 0
9.231007e-01 6.651371e-07 0
9.231005e-01 7.373691e-07 0
9.231003e-01 7.881212e-07 0
9.231001e-01 8.535506e-07 0
9.230999e-01 9.421106e-07 0
9.230997e-01 1.027249e-06 0
9.230996e-01 1.072008e-06 0
9.230994e-01 1.059116e-06 0
9.230992e-01 1.000597e-06 0
9.230990e-01 9.247067e-07 0
9.230988e-01 8.575326e-07 0
9.230986e-01 8.138087e-07 0
9.230985e-01 7.979397e-07 0
9.230984e-01 8.090335e-07 0
9.230983e-01 8.448052e-07 0
9.230982e-01 9.021853e-07 0
9.230981e-01 9.750497e-07 0
9.230981e-01 1.052032e-06 0
9.230980e-01 1.118610e-06 0
9.230980e-01 1.163250e-06 0
9.230980e-01 1.181711e-06 0
9.230979e-01 1.176406e-06 0
9.230979e-01 1.152895e-06 0
9.230978e-01 1.116754e-06 0
9.230977e-01 1.072366e-06 0
9.230976e-01 1.022571e-06 0
9.230975e-01 9.681684e-07 0
9.230974e-01 9.082691e-07 0
9.230973e-01 8.408063e-07 0
9.230972e-01 7.639231e-07 0
9.230972e-01 6.769582e-07 0
9.230971e-01 5.802606e-07 0
9.230972e-01 4.746103e-07 0
9.230972e-01 3.601374e-07 0
9.230973e-01 2.365718e-07 0
9.230975e-01 1.038107e-07 0
9.230977e-01 -3.023257e-08 0
9.230980e-01 -1.478231e-07 0
9.230983e-01 -2.334153e-07 0
9.230986e-01 -2.793897e-07 0
9.230989e-01 -2.837172e-07 0
9.230992e-01 -2.533913e-07 0
9.230995e-01 -2.017346e-07 0
9.230998e-01 -1.527285e-07 0
9.230998e-01 -1.333294e-07 0
9.786884e-01 9.403203e-07 0
9.786884e-01 2.324448e-06 0
9.786931e-01 4.415307e-06 0
9.786943e-01 4.414126e-06 0
9.786926e-01 2.141182e-06 0
9.786908e-01 -4.479044e-07 0
9.786905e-01 -1.297787e-06 0
9.786915e-01 -2.729901e-07 0
9.786927e-01 1.132645e-06 0
9.786934e-01 1.510327e-06 0
9.786933e-01 7.781620e-07 0
9.786929e-01 -1.185166e-07 0
9.786924e-01 -3.677823e-07 0
9.786924e-01 3.395300e-08 0
9.786928e-01 5.528484e-07 0
9.786934e-01 7.476044e-07 0
9.786937e-01 5.750760e-07 0
9.786936e-01 2.691983e-07 0
9.786934e-01 8.810709e-08 0
9.786934e-01 1.518147e-07 0
9.786936e-01 3.962679e-07 0
9.786938e-01 6.283924e-07 0
9.786937e-01 6.736893e-07 0
9.786934e-01 5.255332e-07 0
9.786930e-01 3.443396e-07 0
9.786927e-01 2.883853e-07 0
9.786926e-01 3.625181e-07 0
9.786924e-01 4.481645e-07 0
9.786920e-01 4.551479e-07 0
9.786916e-01 4.106893e-07 0
9.786913e-01 4.048648e-07 0
9.786910e-01 4.846300e-07 0
9.786908e-01 6.182137e-07 0
9.786906e-01 7.439438e-07 0
9.786903e-01 8.307614e-07 0
9.786900e-01 8.925359e-07 0
9.786897e-01 9.599024e-07 0
9.786895e-01 1.046376e-06 0
9.786894e-01 1.136983e-06 0
9.786893e-01 1.202498e-06 0
9.786892e-01 1.222947e-06 0
9.786891e-01 1.199885e-06 0
9.786890e-01 1.150164e-06 0
9.786889e-01 1.091930e-06 0
9.786888e-01 1.036285e-06 0
9.786887e-01 9.876783e-07 0
9.786886e-01 9.479221e-07 0
9.786885e-01 9.188508e-07 0
9.786885e-01 9.027144e-07 0
9.786885e-01 9.008777e-07 0
9.786885e-01 9.113460e-07 0
9.786886e-01 9.280970e-07 0
9.786888e-01 9.443503e-07 0
9.786890e-01 9.563144e-07 0
9.786892e-01 9.638211e-07 0
9.786895e-01 9.683028e-07 0
9.786897e-01 9.705307e-07 0
9.786899e-01 9.700644e-07 0
9.786901e-01 9.655450e-07 0
9.786902e-01 9.544376e-07 0
9.786904e-01 9.329400e-07 0
9.786905e-01 8.965588e-07 0
9.786906e-01 8.408347e-07 0
9.786907e-01 7.633221e-07 0
9.786908e-01 6.636063e-07 0
9.786909e-01 5.433718e-07 0
9.786910e-01 4.052920e-07 0
9.786911e-01 2.535194e-07 0
9.786913e-01 9.467436e-08 0
9.786914e-01 -6.110364e-08 0
9.786916e-01 -2.026498e-07 0
9.786917e-01 -3.222308e-07 0
9.786918e-01 -4.134918e-07 0
9.786919e-01 -4.724905e-07 0
9.786921e-01 -4.985524e-07 0
9.786922e-01 -4.951548e-07 0
9.786924e-01 -4.700593e-07 0
9.786926e-01 -4.048447e-07 0
9.786926e-01 -3.564629e-07 0
9.900893e-01 2.044916e-06 0
9.900893e-01 3.323340e-06 0
9.900925e-01 4.505030e-06 0
9.900914e-01 3.085102e-06 0
9.900887e-01 4.734306e-07 0
9.900872e-01 -1.062436e-06 0
9.900877e-01 -6.320126e-07 0
9.900891e-01 7.613739e-07 0
9.900902e-01 1.553728e-06 0
9.900904e-01 1.155905e-06 0
9.900899e-01 2.195278e-07 0
9.900892e-01 -3.021813e-07 0
9.900888e-01 -1.039916e-07 0
9.900891e-01 3.996959e-07 0
9.900898e-01 6.687112e-07 0
9.900904e-01 5.299889e-07 0
9.900905e-01 1.811803e-07 0
9.900903e-01 -8.289702e-08 0
9.900902e-01 -8.969139e-08 0
9.900905e-01 1.440744e-07 0
9.900910e-01 4.524280e-07 0
9.900914e-01 6.393545e-07 0
9.900914e-01 6.301566e-07 0
9.900912e-01 5.286570e-07 0
9.900911e-01 5.025426e-07 0
9.900911e-01 6.086312e-07 0
9.900912e-01 7.529819e-07 0
9.900910e-01 8.186876e-07 0
9.900906e-01 7.965702e-07 0
9.900902e-01 7.747533e-07 0
9.900898e-01 8.277799e-07 0
9.900896e-01 9.460183e-07 0
9.900893e-01 1.066176e-06 0
9.900889e-01 1.142120e-06 0
9.900885e-01 1.176286e-06 0
9.900882e-01 1.198367e-06 0
9.900879e-01 1.229571e-06 0
9.900877e-01 1.266533e-06 0
9.900876e-01 1.290144e-06 0
9.900876e-01 1.285083e-06 0
9.900875e-01 1.252067e-06 0
9.900876e-01 1.204282e-06 0
9.900876e-01 1.154968e-06 0
9.900876e-01 1.109101e-06 0
9.900877e-01 1.064530e-06 0
9.900878e-01 1.017739e-06 0
9.900878e-01 9.674178e-07 0
9.900879e-01 9.147635e-07 0
9.900879e-01 8.625873e-07 0
9.900880e-01 8.134381e-07 0
9.900881e-01 7.680245e-07 0
9.900883e-01 7.263568e-07 0
9.900884e-01 6.899250e-07 0
9.900886e-01 6.619352e-07 0
9.900888e-01 6.454380e-07 0
9.900891e-01 6.410804e-07 0
9.900893e-01 6.467434e-07 0
9.900895e-01 6.586132e-07 0
9.900898e-01 6.717353e-07 0
9.900900e-01 6.800899e-07 0
9.900903e-01 6.770067e-07 0
9.900905e-01 6.558237e-07 0
9.900908e-01 6.113933e-07 0
9.900910e-01 5.415216e-07 0
9.900913e-01 4.467336e-07 0
9.900915e-01 3.302334e-07 0
9.900918e-01 1.967700e-07 0
9.900920e-01 5.394065e-08 0
9.900922e-01 -8.900292e-08 0
9.900924e-01 -2.236866e-07 0
9.900925e-01 -3.430752e-07 0
9.900927e-01 -4.420583e-07 0
9.900928e-01 -5.168629e-07 0
9.900929e-01 -5.659835e-07 0
9.900930e-01 -5.911375e-07 0
9.900931e-01 -5.946485e-07 0
9.900931e-01 -5.817508e-07 0
9.900932e-01 -5.366464e-07 0
9.900932e-01 -5.008972e-07 0
9.920423e-01 2.032356e-06 0
9.920423e-01 2.777679e-06 0
9.920433e-01 2.901651e-06 0
9.920406e-01 1.032082e-06 0
9.920379e-01 -8.136106e-07 0
9.920372e-01 -1.021840e-06 0
9.920383e-01 1.190225e-07 0
9.920396e-01 1.192400e-06 0
9.920403e-01 1.223514e-06 0
9.920400e-01 4.563934e-07 0
9.920392e-01 -2.055434e-07 0
9.920385e-01 -2.114375e-07 0
9.920384e-01 2.362331e-07 0
9.920390e-01 5.885409e-07 0
9.920396e-01 5.346226e-07 0
9.920400e-01 1.776853e-07 0
9.920398e-01 -1.873847e-07 0
9.920396e-01 -3.389625e-07 0
9.920397e-01 -2.319628e-07 0
9.920401e-01 2.451779e-08 0
9.920407e-01 2.509629e-07 0
9.920410e-01 3.257738e-07 0
9.920411e-01 2.849930e-07 0
9.920412e-01 2.806565e-07 0
9.920414e-01 4.183376e-07 0
9.920417e-01 6.504158e-07 0
9.920420e-01 8.442810e-07 0
9.920419e-01 9.331634e-07 0
9.920417e-01 9.706500e-07 0
9.920415e-01 1.046845e-06 0
9.920414e-01 1.186249e-06 0
9.920412e-01 1.338279e-06 0
9.920410e-01 1.442985e-06 0
9.920408e-01 1.483884e-06 0
9.920405e-01 1.483822e-06 0
9.920403e-01 1.469789e-06 0
9.920402e-01 1.448887e-06 0
9.920401e-01 1.410739e-06 0
9.920401e-01 1.345021e-06 0
9.920401e-01 1.255309e-06 0
9.920402e-01 1.158243e-06 0
9.920403e-01 1.071376e-06 0
9.920405e-01 1.002315e-06 0
9.920406e-01 9.480524e-07 0
9.920408e-01 9.014963e-07 0
9.920410e-01 8.569443e-07 0
9.920412e-01 8.115494e-07 0
9.920413e-01 7.647314e-07 0
9.920415e-01 7.168402e-07 0
9.920416e-01 6.677528e-07 0
9.920417e-01 6.172579e-07 0
9.920419e-01 5.667961e-07 0
9.920420e-01 5.200096e-07 0
9.920421e-01 4.812193e-07 0
9.920422e-01 4.528392e-07 0
9.920423e-01 4.342407e-07 0
9.920424e-01 4.227849e-07 0
9.920425e-01 4.148950e-07 0
9.920427e-01 4.063230e-07 0
9.920429e-01 3.921982e-07 0
9.920431e-01 3.673138e-07 0
9.920434e-01 3.268656e-07 0
9.920436e-01 2.682296e-07 0
9.920439e-01 1.911041e-07 0
9.920442e-01 9.733687e-08 0
9.920445e-01 -9.573034e-09 0
9.920448e-01 -1.243888e-07 0
9.920451e-01 -2.402043e-07 0
9.920453e-01 -3.506812e-07 0
9.920455e-01 -4.505583e-07 0
9.920457e-01 -5.352483e-07 0
9.920458e-01 -6.020728e-07 0
9.920460e-01 -6.499401e-07 0
9.920460e-01 -6.787144e-07 0
9.920461e-01 -6.901719e-07 0
9.920462e-01 -6.859000e-07 0
9.920462e-01 -6.686330e-07 0
9.920463e-01 -6.219037e-07 0
9.920463e-01 -5.864476e-07 0
9.923279e-01 1.280507e-06 0
9.923279e-01 1.410616e-06 0
9.923267e-01 7.875179e-07 0
9.923236e-01 -7.246209e-07 0
9.923216e-01 -1.393062e-06 0
9.923218e-01 -6.029381e-07 0
9.923231e-01 6.450188e-07 0
9.923241e-01 1.135854e-06 0
9.923242e-01 6.376095e-07 0
9.923235e-01 -1.165906e-07 0
9.923227e-01 -3.673469e-07 0
9.923223e-01 -3.247581e-08 0
9.923226e-01 4.134730e-07 0
9.923232e-01 5.251785e-07 0
9.923237e-01 2.518171e-07 0
9.923236e-01 -1.575862e-07 0
9.923233e-01 -4.386598e-07 0
9.923230e-01 -4.802269e-07 0
9.923232e-01 -3.333160e-07 0
9.923237e-01 -1.469855e-07 0
9.923242e-01 -6.462460e-08 0
9.923243e-01 -1.107296e-07 0
9.923244e-01 -1.663983e-07 0
9.923246e-01 -8.616882e-08 0
9.923250e-01 1.542475e-07 0
9.923255e-01 4.433127e-07 0
9.923258e-01 6.621218e-07 0
9.923259e-01 7.987050e-07 0
9.923259e-01 9.266726e-07 0
9.923259e-01 1.100394e-06 0
9.923261e-01 1.298473e-06 0
9.923262e-01 1.460306e-06 0
9.923262e-01 1.549876e-06 0
9.923262e-01 1.575856e-06 0
9.923262e-01 1.565719e-06 0
9.923262e-01 1.534882e-06 0
9.923263e-01 1.479333e-06 0
9.923264e-01 1.389164e-06 0
9.923265e-01 1.265102e-06 0
9.923266e-01 1.123441e-06 0
9.923267e-01 9.869322e-07 0
9.923269e-01 8.714150e-07 0
9.923271e-01 7.803676e-07 0
9.923273e-01 7.093017e-07 0
9.923275e-01 6.525627e-07 0
9.923277e-01 6.067694e-07 0
9.923279e-01 5.704710e-07 0
9.923281e-01 5.425268e-07 0
9.923282e-01 5.207259e-07 0
9.923284e-01 5.015600e-07 0
9.923285e-01 4.819281e-07 0
9.923286e-01 4.608093e-07 0
9.923286e-01 4.390353e-07 0
9.923287e-01 4.173531e-07 0
9.923287e-01 3.947237e-07 0
9.923287e-01 3.687930e-07 0
9.923287e-01 3.372370e-07 0
9.923287e-01 2.983101e-07 0
9.923288e-01 2.508130e-07 0
9.923289e-01 1.936097e-07 0
9.923291e-01 1.257508e-07 0
9.923293e-01 4.718056e-08 0
9.923295e-01 -4.046527e-08 0
9.923297e-01 -1.347404e-07 0
9.923300e-01 -2.324888e-07 0
9.923302e-01 -3.302648e-07 0
9.923305e-01 -4.238851e-07 0
9.923307e-01 -5.094753e-07 0
9.923309e-01 -5.841890e-07 0
9.923310e-01 -6.458819e-07 0
9.923311e-01 -6.936855e-07 0
9.923312e-01 -7.272802e-07 0
9.923313e-01 -7.471522e-07 0
9.923313e-01 -7.539482e-07 0
9.923314e-01 -7.489622e-07 0
9.923314e-01 -7.323812e-07 0
9.923314e-01 -7.043806e-07 0
9.923314e-01 -6.492416e-07 0
9.923314e-01 -6.107305e-07 0
9.923665e-01 2.939098e-07 0
9.923665e-01 -3.233217e-08 0
9.923640e-01 -9.346503e-07 0
9.923612e-01 -1.669540e-06 0
9.923602e-01 -1.277416e-06 0
9.923610e-01 -2.412965e-08 0
9.923623e-01 9.172699e-07 0
9.923629e-01 8.517016e-07 0
9.923625e-01 1.299290e-07 0
9.923617e-01 -4.058449e-07 0
9.923611e-01 -3.238325e-07 0
9.923610e-01 1.230928e-07 0
9.923615e-01 4.276072e-07 0
9.923621e-01 3.455069e-07 0
9.923623e-01 4.023604e-09 0
9.923620e-01 -3.318112e-07 0
9.923616e-01 -4.917659e-07 0
9.923614e-01 -4.642529e-07 0
9.923616e-01 -3.518661e-07 0
9.923619e-01 -2.912847e-07 0
9.923621e-01 -3.543887e-07 0
9.923621e-01 -4.819460e-07 0
9.923620e-01 -5.289359e-07 0
9.923622e-01 -4.017397e-07 0
9.923626e-01 -1.454036e-07 0
9.923630e-01 1.174614e-07 0
9.923633e-01 3.170258e-07 0
9.923634e-01 4.832481e-07 0
9.923636e-01 6.762450e-07 0
9.923639e-01 9.034906e-07 0
9.923642e-01 1.115957e-06 0
9.923645e-01 1.264521e-06 0
9.923647e-01 1.340709e-06 0
9.923649e-01 1.367591e-06 0
9.923651e-01 1.367344e-06 0
9.923654e-01 1.342923e-06 0
9.923657e-01 1.284027e-06 0
9.923659e-01 1.184138e-06 0
9.923661e-01 1.051732e-06 0
9.923663e-01 9.074783e-07 0
9.923665e-01 7.719951e-07 0
9.923666e-01 6.562039e-07 0
9.923668e-01 5.612831e-07 0
9.923670e-01 4.846519e-07 0
9.923671e-01 4.249440e-07 0
9.923673e-01 3.826460e-07 0
9.923674e-01 3.584035e-07 0
9.923676e-01 3.512817e-07 0
9.923677e-01 3.575440e-07 0
9.923678e-01 3.715668e-07 0
9.923679e-01 3.880544e-07 0
9.923679e-01 4.030567e-07 0
9.923679e-01 4.133296e-07 0
9.923679e-01 4.149783e-07 0
9.923679e-01 4.034474e-07 0
9.923679e-01 3.750126e-07 0
9.923679e-01 3.278456e-07 0
9.923679e-01 2.622310e-07 0
9.923679e-01 1.799182e-07 0
9.923680e-01 8.345952e-08 0
9.923681e-01 -2.367504e-08 0
9.923682e-01 -1.368892e-07 0
9.923683e-01 -2.509623e-07 0
9.923684e-01 -3.610359e-07 0
9.923686e-01 -4.629463e-07 0
9.923687e-01 -5.533020e-07 0
9.923688e-01 -6.293192e-07 0
9.923689e-01 -6.897609e-07 0
9.923690e-01 -7.346558e-07 0
9.923691e-01 -7.649519e-07 0
9.923691e-01 -7.821199e-07 0
9.923691e-01 -7.877379e-07 0
9.923691e-01 -7.836681e-07 0
9.923691e-01 -7.710137e-07 0
9.923691e-01 -7.496624e-07 0
9.923690e-01 -7.194932e-07 0
9.923690e-01 -6.797763e-07 0
9.923689e-01 -6.170698e-07 0
9.923689e-01 -5.768773e-07 0
9.923441e-01 -4.677355e-07 0
9.923441e-01 -9.777133e-07 0
9.923414e-01 -1.753268e-06 0
9.923394e-01 -1.727026e-06 0
9.923393e-01 -7.588952e-07 0
9.923405e-01 3.917293e-07 0
9.923415e-01 8.254114e-07 0
9.923417e-01 4.215524e-07 0
9.923412e-01 -2.030980e-07 0
9.923404e-01 -4.151226e-07 0
9.923400e-01 -1.393283e-07 0
9.923402e-01 2.389529e-07 0
9.923408e-01 3.558369e-07 0
9.923412e-01 1.684099e-07 0
9.923411e-01 -1.282300e-07 0
9.923407e-01 -3.365840e-07 0
9.923403e-01 -3.859688e-07 0
9.923403e-01 -3.263438e-07 0
9.923405e-01 -2.703310e-07 0
9.923406e-01 -3.169240e-07 0
9.923406e-01 -4.718357e-07 0
9.923404e-01 -6.294889e-07 0
9.923403e-01 -6.619476e-07 0
9.923404e-01 -5.378150e-07 0
9.923407e-01 -3.379789e-07 0
9.923409e-01 -1.560813e-07 0
9.923410e-01 -8.329040e-09 0
9.923411e-01 1.517726e-07 0
9.923413e-01 3.540060e-07 0
9.923416e-01 5.708840e-07 0
9.923420e-01 7.501537e-07 0
9.923424e-01 8.656069e-07 0
9.923427e-01 9.292657e-07 0
9.923430e-01 9.660867e-07 0
9.923433e-01 9.874349e-07 0
9.923437e-01 9.863961e-07 0
9.923440e-01 9.507841e-07 0
9.923443e-01 8.778768e-07 0
9.923446e-01 7.787895e-07 0
9.923447e-01 6.712549e-07 0
9.923449e-01 5.691148e-07 0
9.923450e-01 4.778909e-07 0
9.923452e-01 3.980385e-07 0
9.923453e-01 3.301693e-07 0
9.923454e-01 2.770463e-07 0
9.923455e-01 2.423830e-07 0
9.923455e-01 2.286650e-07 0
9.923456e-01 2.352065e-07 0
9.923457e-01 2.579274e-07 0
9.923457e-01 2.910212e-07 0
9.923457e-01 3.285147e-07 0
9.923458e-01 3.646541e-07 0
9.923458e-01 3.933443e-07 0
9.923458e-01 4.078748e-07 0
9.923458e-01 4.021371e-07 0
9.923459e-01 3.721802e-07 0
9.923459e-01 3.169758e-07 0
9.923459e-01 2.382509e-07 0
9.923460e-01 1.395453e-07 0
9.923460e-01 2.577861e-08 0
9.923461e-01 -9.686788e-08 0
9.923461e-01 -2.214582e-07 0
9.923462e-01 -3.412806e-07 0
9.923462e-01 -4.508779e-07 0
9.923462e-01 -5.460841e-07 0
9.923463e-01 -6.239872e-07 0
9.923463e-01 -6.832015e-07 0
9.923463e-01 -7.242264e-07 0
9.923462e-01 -7.488040e-07 0
9.923462e-01 -7.590038e-07 0
9.923461e-01 -7.575786e-07 0
9.923461e-01 -7.470687e-07 0