<?xml version="1.0"?>
<VTKFile type="StructuredGrid">
<StructuredGrid WholeExtent="0 158 0 30 0 0 ">
<Piece Extent="0 158 0 30 0 0 ">
<Points>
<DataArray type="Float64" format="ascii" NumberOfComponents="3">
0.000000e+00 0.000000e+00 0.000000e+00
3.164557e-02 0.000000e+00 0.000000e+00
6.329114e-02 0.000000e+00 0.000000e+00
9.493671e-02 0.000000e+00 0.000000e+00
1.265823e-01 0.000000e+00 0.000000e+00
1.582278e-01 0.000000e+00 0.000000e+00
1.898734e-01 0.000000e+00 0.000000e+00
2.215190e-01 0.000000e+00 0.000000e+00
2.531646e-01 0.000000e+00 0.000000e+00
2.848101e-01 0.000000e+00 0.000000e+00
3.164557e-01 0.000000e+00 0.000000e+00
3.481013e-01 0.000000e+00 0.000000e+00
3.797468e-01 0.000000e+00 0.000000e+00
4.113924e-01 0.000000e+00 0.000000e+00
4.430380e-01 0.000000e+00 0.000000e+00
4.746835e-01 0.000000e+00 0.000000e+00
5.063291e-01 0.000000e+00 0.000000e+00
5.379747e-01 0.000000e+00 0.000000e+00
5.696203e-01 0.000000e+00 0.000000e+00
6.012658e-01 0.000000e+00 0.000000e+00
6.329114e-01 0.000000e+00 0.000000e+00
6.645570e-01 0.000000e+00 0.000000e+00
6.962025e-01 0.000000e+00 0.000000e+00
7.278481e-01 0.000000e+00 0.000000e+00
7.594937e-01 0.000000e+00 0.000000e+00
7.911392e-01 0.000000e+00 0.000000e+00
8.227848e-01 0.000000e+00 0.000000e+00
8.544304e-01 0.000000e+00 0.000000e+00
8.860759e-01 0.000000e+00 0.000000e+00
9.177215e-01 0.000000e+00 0.000000e+00
9.493671e-01 0.000000e+00 0.000000e+00
9.810127e-01 0.000000e+00 0.000000e+00
1.012658e+00 0.000000e+00 0.000000e+00
1.044304e+00 0.000000e+00 0.000000e+00
1.075949e+00 0.000000e+00 0.000000e+00
1.107595e+00 0.000000e+00 0.000000e+00
1.139241e+00 0.000000e+00 0.000000e+00
1.170886e+00 0.000000e+00 0.000000e+00
1.202532e+00 0.000000e+00 0.000000e+00
1.234177e+00 0.000000e+00 0.000000e+00
1.265823e+00 0.000000e+00 0.000000e+00
1.297468e+00 0.000000e+00 0.000000e+00
1.329114e+00 0.000000e+00 0.000000e+00
1.360759e+00 0.000000e+00 0.000000e+00
1.392405e+00 0.000000e+00 0.000000e+00
1.424051e+00 0.000000e+00 0.000000e+00
1.455696e+00 0.000000e+00 0.000000e+00
1.487342e+00 0.000000e+00 0.000000e+00
1.518987e+00 0.000000e+00 0.000000e+00
1.550633e+00 0.000000e+00 0.000000e+00
1.582278e+00 0.000000e+00 0.000000e+00
1.613924e+00 0.000000e+00 0.000000e+00
1.645570e+00 0.000000e+00 0.000000e+00
1.677215e+00 0.000000e+00 0.000000e+00
1.708861e+00 0.000000e+00 0.000000e+00
1.740506e+00 0.000000e+00 0.000000e+00
1.772152e+00 0.000000e+00 0.000000e+00
1.803797e+00 0.000000e+00 0.000000e+00
1.835443e+00 0.000000e+00 0.000000e+00
1.867089e+00 0.000000e+00 0.000000e+00
1.898734e+00 0.000000e+00 0.000000e+00
1.930380e+00 0.000000e+00 0.000000e+00
1.962025e+00 0.000000e+00 0.000000e+00
1.993671e+00 0.000000e+00 0.000000e+00
2.025316e+00 0.000000e+00 0.000000e+00
2.056962e+00 0.000000e+00 0.000000e+00
2.088608e+00 0.000000e+00 0.000000e+00
2.120253e+00 0.000000e+00 0.000000e+00
2.151899e+00 0.000000e+00 0.000000e+00
2.183544e+00 0.000000e+00 0.000000e+00
2.215190e+00 0.000000e+00 0.000000e+00
2.246835e+00 0.000000e+00 0.000000e+00
2.278481e+00 0.000000e+00 0.000000e+00
2.310127e+00 0.000000e+00 0.000000e+00
2.341772e+00 0.000000e+00 0.000000e+00
2.373418e+00 0.000000e+00 0.000000e+00
2.405063e+00 0.000000e+00 0.000000e+00
2.436709e+00 0.000000e+00 0.000000e+00
2.468354e+00 0.000000e+00 0.000000e+00
2.500000e+00 0.000000e+00 0.000000e+00
2.531646e+00 0.000000e+00 0.000000e+00
2.563291e+00 0.000000e+00 0.000000e+00
2.594937e+00 0.000000e+00 0.000000e+00
2.626582e+00 0.000000e+00 0.000000e+00
2.658228e+00 0.000000e+00 0.000000e+00
2.689873e+00 0.000000e+00 0.000000e+00
2.721519e+00 0.000000e+00 0.000000e+00
2.753165e+00 0.000000e+00 0.000000e+00
2.784810e+00 0.000000e+00 0.000000e+00
2.816456e+00 0.000000e+00 0.000000e+00
2.848101e+00 0.000000e+00 0.000000e+00
2.879747e+00 0.000000e+00 0.000000e+00
2.911392e+00 0.000000e+00 0.000000e+00
2.943038e+00 0.000000e+00 0.000000e+00
2.974684e+00 0.000000e+00 0.000000e+00
3.006329e+00 0.000000e+00 0.000000e+00
3.037975e+00 0.000000e+00 0.000000e+00
3.069620e+00 0.000000e+00 0.000000e+00
3.101266e+00 0.000000e+00 0.000000e+00
3.132911e+00 0.000000e+00 0.000000e+00
3.164557e+00 0.000000e+00 0.000000e+00
3.196203e+00 0.000000e+00 0.000000e+00
3.227848e+00 0.000000e+00 0.000000e+00
3.259494e+00 0.000000e+00 0.000000e+00
3.291139e+00 0.000000e+00 0.000000e+00
3.322785e+00 0.000000e+00 0.000000e+00
3.354430e+00 0.000000e+00 0.000000e+00
3.386076e+00 0.000000e+00 0.000000e+00
3.417722e+00 0.000000e+00 0.000000e+00
3.449367e+00 0.000000e+00 0.000000e+00
3.481013e+00 0.000000e+00 0.000000e+00
3.512658e+00 0.000000e+00 0.000000e+00
3.544304e+00 0.000000e+00 0.000000e+00
3.575949e+00 0.000000e+00 0.000000e+00
3.607595e+00 0.000000e+00 0.000000e+00
3.639241e+00 0.000000e+00 0.000000e+00
3.670886e+00 0.000000e+00 0.000000e+00
3.702532e+00 0.000000e+00 0.000000e+00
3.734177e+00 0.000000e+00 0.000000e+00
3.765823e+00 0.000000e+00 0.000000e+00
3.797468e+00 0.000000e+00 0.000000e+00
3.829114e+00 0.000000e+00 0.000000e+00
3.860759e+00 0.000000e+00 0.000000e+00
3.892405e+00 0.000000e+00 0.000000e+00
3.924051e+00 0.000000e+00 0.000000e+00
3.955696e+00 0.000000e+00 0.000000e+00
3.987342e+00 0.000000e+00 0.000000e+00
4.018987e+00 0.000000e+00 0.000000e+00
4.050633e+00 0.000000e+00 0.000000e+00
4.082278e+00 0.000000e+00 0.000000e+00
4.113924e+00 0.000000e+00 0.000000e+00
4.145570e+00 0.000000e+00 0.000000e+00
4.177215e+00 0.000000e+00 0.000000e+00
4.208861e+00 0.000000e+00 0.000000e+00
4.240506e+00 0.000000e+00 0.000000e+00
4.272152e+00 0.000000e+00 0.000000e+00
4.303797e+00 0.000000e+00 0.000000e+00
4.335443e+00 0.000000e+00 0.000000e+00
4.367089e+00 0.000000e+00 0.000000e+00
4.398734e+00 0.000000e+00 0.000000e+00
4.430380e+00 0.000000e+00 0.000000e+00
4.462025e+00 0.000000e+00 0.000000e+00
4.493671e+00 0.000000e+00 0.000000e+00
4.525316e+00 0.000000e+00 0.000000e+00
4.556962e+00 0.000000e+00 0.000000e+00
4.588608e+00 0.000000e+00 0.000000e+00
4.620253e+00 0.000000e+00 0.000000e+00
4.651899e+00 0.000000e+00 0.000000e+00
4.683544e+00 0.000000e+00 0.000000e+00
4.715190e+00 0.000000e+00 0.000000e+00
4.746835e+00 0.000000e+00 0.000000e+00
4.778481e+00 0.000000e+00 0.000000e+00
4.810127e+00 0.000000e+00 0.000000e+00
4.841772e+00 0.000000e+00 0.000000e+00
4.873418e+00 0.000000e+00 0.000000e+00
4.905063e+00 0.000000e+00 0.000000e+00
4.936709e+00 0.000000e+00 0.000000e+00
4.968354e+00 0.000000e+00 0.000000e+00
5.000000e+00 0.000000e+00 0.000000e+00
0.000000e+00 3.333333e-02 0.000000e+00
3.164557e-02 3.333333e-02 0.000000e+00
6.329114e-02 3.333333e-02 0.000000e+00
9.493671e-02 3.333333e-02 0.000000e+00
1.265823e-01 3.333333e-02 0.000000e+00
1.582278e-01 3.333333e-02 0.000000e+00
1.898734e-01 3.333333e-02 0.000000e+00
2.215190e-01 3.333333e-02 0.000000e+00
2.531646e-01 3.333333e-02 0.000000e+00
2.848101e-01 3.333333e-02 0.000000e+00
3.164557e-01 3.333333e-02 0.000000e+00
3.481013e-01 3.333333e-02 0.000000e+00
3.797468e-01 3.333333e-02 0.000000e+00
4.113924e-01 3.333333e-02 0.000000e+00
4.430380e-01 3.333333e-02 0.000000e+00
4.746835e-01 3.333333e-02 0.000000e+00
5.063291e-01 3.333333e-02 0.000000e+00
5.379747e-01 3.333333e-02 0.000000e+00
5.696203e-01 3.333333e-02 0.000000e+00
6.012658e-01 3.333333e-02 0.000000e+00
6.329114e-01 3.333333e-02 0.000000e+00
6.645570e-01 3.333333e-02 0.000000e+00
6.962025e-01 3.333333e-02 0.000000e+00
7.278481e-01 3.333333e-02 0.000000e+00
7.594937e-01 3.333333e-02 0.000000e+00
7.911392e-01 3.333333e-02 0.000000e+00
8.227848e-01 3.333333e-02 0.000000e+00
8.544304e-01 3.333333e-02 0.000000e+00
8.860759e-01 3.333333e-02 0.000000e+00
9.177215e-01 3.333333e-02 0.000000e+00
9.493671e-01 3.333333e-02 0.000000e+00
9.810127e-01 3.333333e-02 0.000000e+00
1.012658e+00 3.333333e-02 0.000000e+00
1.044304e+00 3.333333e-02 0.000000e+00
1.075949e+00 3.333333e-02 0.000000e+00
1.107595e+00 3.333333e-02 0.000000e+00
1.139241e+00 3.333333e-02 0.000000e+00
1.170886e+00 3.333333e-02 0.000000e+00
1.202532e+00 3.333333e-02 0.000000e+00
1.234177e+00 3.333333e-02 0.000000e+00
1.265823e+00 3.333333e-02 0.000000e+00
1.297468e+00 3.333333e-02 0.000000e+00
1.329114e+00 3.333333e-02 0.000000e+00
1.360759e+00 3.333333e-02 0.000000e+00
1.392405e+00 3.333333e-02 0.000000e+00
1.424051e+00 3.333333e-02 0.000000e+00
1.455696e+00 3.333333e-02 0.000000e+00
1.487342e+00 3.333333e-02 0.000000e+00
1.518987e+00 3.333333e-02 0.000000e+00
1.550633e+00 3.333333e-02 0.000000e+00
1.582278e+00 3.333333e-02 0.000000e+00
1.613924e+00 3.333333e-02 0.000000e+00
1.645570e+00 3.333333e-02 0.000000e+00
1.677215e+00 3.333333e-02 0.000000e+00
1.708861e+00 3.333333e-02 0.000000e+00
1.740506e+00 3.333333e-02 0.000000e+00
1.772152e+00 3.333333e-02 0.000000e+00
1.803797e+00 3.333333e-02 0.000000e+00
1.835443e+00 3.333333e-02 0.000000e+00
1.867089e+00 3.333333e-02 0.000000e+00
1.898734e+00 3.333333e-02 0.000000e+00
1.930380e+00 3.333333e-02 0.000000e+00
1.962025e+00 3.333333e-02 0.000000e+00
1.993671e+00 3.333333e-02 0.000000e+00
2.025316e+00 3.333333e-02 0.000000e+00
2.056962e+00 3.333333e-02 0.000000e+00
2.088608e+00 3.333333e-02 0.000000e+00
2.120253e+00 3.333333e-02 0.000000e+00
2.151899e+00 3.333333e-02 0.000000e+00
2.183544e+00 3.333333e-02 0.000000e+00
2.215190e+00 3.333333e-02 0.000000e+00
2.246835e+00 3.333333e-02 0.000000e+00
2.278481e+00 3.333333e-02 0.000000e+00
2.310127e+00 3.333333e-02 0.000000e+00
2.341772e+00 3.333333e-02 0.000000e+00
2.373418e+00 3.333333e-02 0.000000e+00
2.405063e+00 3.333333e-02 0.000000e+00
2.436709e+00 3.333333e-02 0.000000e+00
2.468354e+00 3.333333e-02 0.000000e+00
2.500000e+00 3.333333e-02 0.000000e+00
2.531646e+00 3.333333e-02 0.000000e+00
2.563291e+00 3.333333e-02 0.000000e+00
2.594937e+00 3.333333e-02 0.000000e+00
2.626582e+00 3.333333e-02 0.000000e+00
2.658228e+00 3.333333e-02 0.000000e+00
2.689873e+00 3.333333e-02 0.000000e+00
2.721519e+00 3.333333e-02 0.000000e+00
2.753165e+00 3.333333e-02 0.000000e+00
2.784810e+00 3.333333e-02 0.000000e+00
2.816456e+00 3.333333e-02 0.000000e+00
2.848101e+00 3.333333e-02 0.000000e+00
2.879747e+00 3.333333e-02 0.000000e+00
[...]
<PointData>
<DataArray Name="Velocity" type="Float64" format="ascii" NumberOfComponents="3">
0.000000e+00 0.000000e+00 0
0.000000e+00 0.000000e+00 0
0.000000e+00 0.000000e+00 0
0.000000e+00 0.000000e+00 0
0.000000e+00 0.000000e+00 0
0.000000e+00 0.000000e+00 0
0.000000e+00 0.000000e+00 0
0.000000e+00 0.000000e+00 0
0.000000e+00 0.000000e+00 0
0.000000e+00 0.000000e+00 0
0.000000e+00 0.000000e+00 0
0.000000e+00 0.000000e+00 0
0.000000e+00 0.000000e+00 0
0.000000e+00 0.000000e+00 0
0.000000e+00 0.000000e+00 0
0.000000e+00 0.000000e+00 0
0.000000e+00 0.000000e+00 0
0.000000e+00 0.000000e+00 0
0.000000e+00 0.000000e+00 0
-3.383436e-17 0.000000e+00 0
0.000000e+00 0.000000e+00 0
0.000000e+00 0.000000e+00 0
0.000000e+00 0.000000e+00 0
-3.383441e-17 0.000000e+00 0
0.000000e+00 0.000000e+00 0
0.000000e+00 0.000000e+00 0
0.000000e+00 0.000000e+00 0
-3.383447e-17 0.000000e+00 0
0.000000e+00 0.000000e+00 0
0.000000e+00 0.000000e+00 0
0.000000e+00 0.000000e+00 0
-3.383453e-17 0.000000e+00 0
0.000000e+00 0.000000e+00 0
0.000000e+00 0.000000e+00 0
0.000000e+00 0.000000e+00 0
0.000000e+00 0.000000e+00 0
0.000000e+00 0.000000e+00 0
0.000000e+00 0.000000e+00 0
4.335308e-17 0.000000e+00 0
0.000000e+00 0.000000e+00 0
0.000000e+00 0.000000e+00 0
0.000000e+00 0.000000e+00 0
0.000000e+00 0.000000e+00 0
0.000000e+00 0.000000e+00 0
0.000000e+00 0.000000e+00 0
0.000000e+00 0.000000e+00 0
4.335290e-17 0.000000e+00 0
0.000000e+00 0.000000e+00 0
0.000000e+00 0.000000e+00 0
0.000000e+00 0.000000e+00 0
0.000000e+00 0.000000e+00 0
0.000000e+00 0.000000e+00 0
0.000000e+00 0.000000e+00 0
0.000000e+00 0.000000e+00 0
4.335271e-17 0.000000e+00 0
0.000000e+00 0.000000e+00 0
0.000000e+00 0.000000e+00 0
0.000000e+00 0.000000e+00 0
0.000000e+00 0.000000e+00 0
0.000000e+00 0.000000e+00 0
0.000000e+00 0.000000e+00 0
0.000000e+00 0.000000e+00 0
4.335251e-17 0.000000e+00 0
0.000000e+00 0.000000e+00 0
0.000000e+00 0.000000e+00 0
0.000000e+00 0.000000e+00 0
0.000000e+00 0.000000e+00 0
0.000000e+00 0.000000e+00 0
0.000000e+00 0.000000e+00 0
0.000000e+00 0.000000e+00 0
0.000000e+00 0.000000e+00 0
0.000000e+00 0.000000e+00 0
0.000000e+00 0.000000e+00 0
0.000000e+00 0.000000e+00 0
0.000000e+00 0.000000e+00 0
0.000000e+00 0.000000e+00 0
0.000000e+00 0.000000e+00 0
0.000000e+00 0.000000e+00 0
0.000000e+00 0.000000e+00 0
0.000000e+00 0.000000e+00 0
0.000000e+00 0.000000e+00 0
0.000000e+00 0.000000e+00 0
0.000000e+00 0.000000e+00 0
0.000000e+00 0.000000e+00 0
0.000000e+00 0.000000e+00 0
0.000000e+00 0.000000e+00 0
0.000000e+00 0.000000e+00 0
0.000000e+00 0.000000e+00 0
0.000000e+00 0.000000e+00 0
0.000000e+00 0.000000e+00 0
0.000000e+00 0.000000e+00 0
0.000000e+00 0.000000e+00 0
0.000000e+00 0.000000e+00 0
0.000000e+00 0.000000e+00 0
0.000000e+00 0.000000e+00 0
0.000000e+00 0.000000e+00 0
0.000000e+00 0.000000e+00 0
0.000000e+00 0.000000e+00 0
0.000000e+00 0.000000e+00 0
0.000000e+00 0.000000e+00 0
0.000000e+00 0.000000e+00 0
0.000000e+00 0.000000e+00 0
0.000000e+00 0.000000e+00 0
0.000000e+00 0.000000e+00 0
0.000000e+00 0.000000e+00 0
0.000000e+00 0.000000e+00 0
0.000000e+00 0.000000e+00 0
0.000000e+00 0.000000e+00 0
0.000000e+00 0.000000e+00 0
0.000000e+00 0.000000e+00 0
0.000000e+00 0.000000e+00 0
0.000000e+00 0.000000e+00 0
0.000000e+00 0.000000e+00 0
0.000000e+00 0.000000e+00 0
0.000000e+00 0.000000e+00 0
0.000000e+00 0.000000e+00 0
0.000000e+00 0.000000e+00 0
0.000000e+00 0.000000e+00 0
0.000000e+00 0.000000e+00 0
0.000000e+00 0.000000e+00 0
0.000000e+00 0.000000e+00 0
0.000000e+00 0.000000e+00 0
0.000000e+00 0.000000e+00 0
0.000000e+00 0.000000e+00 0
0.000000e+00 0.000000e+00 0
0.000000e+00 0.000000e+00 0
0.000000e+00 0.000000e+00 0
0.000000e+00 0.000000e+00 0
0.000000e+00 0.000000e+00 0
0.000000e+00 0.000000e+00 0
0.000000e+00 0.000000e+00 0
0.000000e+00 0.000000e+00 0
0.000000e+00 0.000000e+00 0
0.000000e+00 0.000000e+00 0
0.000000e+00 0.000000e+00 0
0.000000e+00 0.000000e+00 0
0.000000e+00 0.000000e+00 0
0.000000e+00 0.000000e+00 0
0.000000e+00 0.000000e+00 0
0.000000e+00 0.000000e+00 0
0.000000e+00 0.000000e+00 0
0.000000e+00 0.000000e+00 0
0.000000e+00 0.000000e+00 0
0.000000e+00 0.000000e+00 0
0.000000e+00 0.000000e+00 0
0.000000e+00 0.000000e+00 0
0.000000e+00 0.000000e+00 0
0.000000e+00 0.000000e+00 0
0.000000e+00 0.000000e+00 0
0.000000e+00 0.000000e+00 0
0.000000e+00 0.000000e+00 0
0.000000e+00 0.000000e+00 0
0.000000e+00 0.000000e+00 0
0.000000e+00 0.000000e+00 0
0.000000e+00 0.000000e+00 0
0.000000e+00 0.000000e+00 0
0.000000e+00 0.000000e+00 0
0.000000e+00 0.000000e+00 0
0.000000e+00 0.000000e+00 0
3.101125e+00 1.114889e-08 0
3.101125e+00 2.426370e-08 0
3.101125e+00 4.576727e-08 0
3.101125e+00 5.338848e-08 0
3.101125e+00 4.366904e-08 0
3.101125e+00 2.407558e-08 0
3.101125e+00 7.023920e-09 0
3.101125e+00 2.953852e-10 0
3.101125e+00 4.146328e-09 0
3.101125e+00 1.204812e-08 0
3.101125e+00 1.533348e-08 0
3.101125e+00 1.105186e-08 0
3.101125e+00 3.617304e-09 0
3.101125e+00 -1.014091e-09 0
3.101125e+00 -7.044694e-10 0
3.101125e+00 2.664922e-09 0
3.101125e+00 5.982051e-09 0
3.101125e+00 6.954733e-09 0
3.101125e+00 5.357490e-09 0
3.101125e+00 3.402830e-09 0
3.101125e+00 3.121941e-09 0
3.101125e+00 4.389355e-09 0
3.101125e+00 5.964504e-09 0
3.101125e+00 6.992441e-09 0
3.101125e+00 7.411330e-09 0
3.101125e+00 7.679339e-09 0
3.101125e+00 8.175448e-09 0
3.101125e+00 8.691066e-09 0
3.101125e+00 8.697651e-09 0
3.101125e+00 8.016838e-09 0
3.101125e+00 7.088352e-09 0
3.101125e+00 6.583900e-09 0
3.101125e+00 6.835656e-09 0
3.101125e+00 7.580632e-09 0
3.101125e+00 8.207423e-09 0
3.101125e+00 8.248221e-09 0
3.101125e+00 7.692724e-09 0
3.101125e+00 6.915935e-09 0
3.101125e+00 6.353902e-09 0
3.101125e+00 6.219781e-09 0
3.101125e+00 6.444007e-09 0
3.101125e+00 6.805753e-09 0
3.101125e+00 7.098818e-09 0
3.101125e+00 7.212990e-09 0
3.101125e+00 7.127442e-09 0
3.101125e+00 6.881474e-09 0
3.101125e+00 6.566074e-09 0
3.101125e+00 6.318416e-09 0
3.101125e+00 6.277483e-09 0
3.101125e+00 6.499928e-09 0
3.101125e+00 6.896937e-09 0
3.101125e+00 7.263782e-09 0
3.101125e+00 7.407394e-09 0
3.101125e+00 7.287156e-09 0
3.101125e+00 7.053561e-09 0
3.101125e+00 6.940503e-09 0
3.101125e+00 7.088466e-09 0
3.101125e+00 7.438659e-09 0
3.101125e+00 7.784074e-09 0
3.101125e+00 7.932050e-09 0
3.101125e+00 7.843280e-09 0
3.101125e+00 7.640327e-09 0
3.101125e+00 7.497433e-09 0
3.101125e+00 7.509531e-09 0
3.101125e+00 7.641768e-09 0
3.101125e+00 7.776770e-09 0
3.101125e+00 7.797671e-09 0
3.101125e+00 7.651899e-09 0
3.101125e+00 7.362038e-09 0
3.101125e+00 7.008694e-09 0
3.101125e+00 6.691163e-09 0
3.101125e+00 6.472483e-09 0
3.101125e+00 6.339297e-09 0
3.101125e+00 6.198692e-09 0
3.101125e+00 5.942003e-09 0
3.101125e+00 5.538322e-09 0
3.101125e+00 5.072543e-09 0
3.101125e+00 4.694449e-09 0
3.101125e+00 4.513508e-09 0
3.101125e+00 4.521294e-09 0
3.101125e+00 4.610841e-09 0
3.101125e+00 4.666920e-09 0
3.101125e+00 4.650276e-09 0
3.101125e+00 4.609469e-09 0
3.101125e+00 4.618846e-09 0
3.101125e+00 4.710965e-09 0
3.101125e+00 4.865103e-09 0
3.101125e+00 5.046284e-09 0
3.101125e+00 5.242107e-09 0
3.101125e+00 5.458489e-09 0
3.101125e+00 5.685728e-09 0
3.101125e+00 5.879602e-09 0
3.101125e+00 5.987738e-09 0
3.101125e+00 6.001401e-09 0
3.101125e+00 5.978192e-09 0
3.101125e+00 6.005169e-09 0
3.101125e+00 6.130965e-09 0
3.101125e+00 6.325790e-09 0
3.101125e+00 6.504198e-09 0
3.101125e+00 6.592532e-09 0
3.101125e+00 6.584797e-09 0
3.101125e+00 6.542250e-09 0
3.101125e+00 6.542117e-09 0
3.101125e+00 6.620935e-09 0
3.101125e+00 6.756254e-09 0
3.101125e+00 6.894328e-09 0
3.101125e+00 6.994595e-09 0
3.101125e+00 7.054707e-09 0
3.101125e+00 7.102061e-09 0
3.101125e+00 7.165744e-09 0
3.101125e+00 7.254177e-09 0
3.101125e+00 7.353430e-09 0
3.101125e+00 7.442113e-09 0
3.101125e+00 7.507991e-09 0
3.101125e+00 7.553267e-09 0
3.101125e+00 7.586609e-09 0
3.101125e+00 7.612412e-09 0
3.101125e+00 7.626988e-09 0
3.101125e+00 7.622412e-09 0
3.101125e+00 7.592817e-09 0
3.101125e+00 7.538100e-09 0
3.101125e+00 7.462482e-09 0
3.101125e+00 7.370169e-09 0
3.101125e+00 7.263025e-09 0
3.101125e+00 7.140671e-09 0
3.101125e+00 7.002370e-09 0
3.101125e+00 6.849292e-09 0
3.101125e+00 6.685156e-09 0
3.101125e+00 6.515237e-09 0
3.101125e+00 6.344128e-09 0
3.101125e+00 6.174881e-09 0
3.101125e+00 6.009332e-09 0
3.101125e+00 5.848823e-09 0
3.101125e+00 5.695211e-09 0
3.101125e+00 5.550880e-09 0
3.101125e+00 5.418550e-09 0
3.101125e+00 5.300351e-09 0
3.101125e+00 5.197528e-09 0
3.101125e+00 5.110293e-09 0
3.101125e+00 5.037682e-09 0
3.101125e+00 4.977633e-09 0
3.101125e+00 4.927469e-09 0
3.101125e+00 4.883542e-09 0
3.101125e+00 4.840941e-09 0
3.101125e+00 4.794101e-09 0
3.101125e+00 4.736534e-09 0
3.101125e+00 4.662445e-09 0
3.101125e+00 4.570934e-09 0
3.101125e+00 4.459389e-09 0
3.101125e+00 4.325703e-09 0
3.101125e+00 4.173640e-09 0
3.101125e+00 4.009704e-09 0
3.101124e+00 3.842400e-09 0
3.101124e+00 3.678093e-09 0
3.101124e+00 3.513772e-09 0
3.101124e+00 3.315998e-09 0
3.101124e+00 2.982501e-09 0
3.101124e+00 1.449802e-09 0
3.101124e+00 1.363818e-10 0
5.981354e+00 1.382451e-08 0
5.981354e+00 2.851976e-08 0
5.981355e+00 4.919812e-08 0
5.981355e+00 5.143130e-08 0
5.981354e+00 3.806016e-08 0
5.981354e+00 1.969898e-08 0
5.981354e+00 7.883426e-09 0
5.981354e+00 7.378698e-09 0
5.981354e+00 1.430745e-08 0
5.981355e+00 2.026417e-08 0
5.981355e+00 1.930128e-08 0
5.981354e+00 1.238915e-08 0
5.981354e+00 5.194990e-09 0
5.981354e+00 2.297071e-09 0
5.981354e+00 3.838667e-09 0
5.981355e+00 6.933915e-09 0
5.981355e+00 8.647803e-09 0
5.981355e+00 7.749402e-09 0
5.981354e+00 5.518926e-09 0
5.981354e+00 4.296687e-09 0
5.981354e+00 4.970914e-09 0
5.981354e+00 6.624719e-09 0
5.981354e+00 7.893130e-09 0
5.981354e+00 8.262833e-09 0
5.981354e+00 8.219700e-09 0
5.981354e+00 8.466436e-09 0
5.981354e+00 9.134176e-09 0
5.981354e+00 9.681252e-09 0
5.981354e+00 9.521302e-09 0
5.981354e+00 8.660234e-09 0
5.981354e+00 7.707517e-09 0
5.981354e+00 7.334485e-09 0
5.981354e+00 7.718588e-09 0
5.981354e+00 8.447229e-09 0
5.981354e+00 8.904918e-09 0
5.981354e+00 8.759613e-09 0
5.981354e+00 8.150959e-09 0
5.981354e+00 7.498840e-09 0
5.981354e+00 7.161248e-09 0
5.981354e+00 7.225407e-09 0
5.981354e+00 7.537187e-09 0
5.981354e+00 7.868269e-09 0
5.981354e+00 8.058546e-09 0
5.981354e+00 8.055236e-09 0
5.981354e+00 7.881394e-09 0
5.981354e+00 7.602695e-09 0
5.981354e+00 7.318618e-09 0
5.981354e+00 7.150400e-09 0
5.981354e+00 7.194193e-09 0
5.981354e+00 7.454287e-09 0
5.981354e+00 7.814559e-09 0
5.981354e+00 8.093488e-09 0
5.981354e+00 8.162177e-09 0
5.981354e+00 8.040492e-09 0
5.981354e+00 7.887847e-09 0
5.981354e+00 7.885281e-09 0
5.981354e+00 8.097550e-09 0
5.981354e+00 8.424670e-09 0
5.981354e+00 8.681789e-09 0
5.981354e+00 8.739096e-09 0
5.981354e+00 8.606931e-09 0
5.981354e+00 8.407706e-09 0
5.981354e+00 8.270464e-09 0
5.981354e+00 8.239550e-09 0
5.981354e+00 8.261501e-09 0
5.981354e+00 8.233680e-09 0
5.981354e+00 8.072833e-09 0
5.981354e+00 7.750947e-09 0
5.981354e+00 7.302151e-09 0
5.981354e+00 6.804079e-09 0
5.981354e+00 6.338200e-09 0
5.981354e+00 5.948192e-09 0
5.981354e+00 5.604769e-09 0
5.981354e+00 5.225487e-09 0
5.981354e+00 4.745092e-09 0
5.981354e+00 4.180731e-09 0
5.981354e+00 3.641836e-09 0
5.981354e+00 3.266170e-09 0
5.981354e+00 3.121993e-09 0
5.981354e+00 3.163327e-09 0
5.981354e+00 3.277325e-09 0
5.981354e+00 3.377545e-09 0
5.981354e+00 3.457803e-09 0
5.981354e+00 3.568613e-09 0
5.981354e+00 3.756328e-09 0
5.981354e+00 4.021743e-09 0
5.981355e+00 4.329821e-09 0
5.981355e+00 4.651355e-09 0
5.981355e+00 4.983326e-09 0
5.981355e+00 5.328740e-09 0
5.981355e+00 5.664042e-09 0
5.981355e+00 5.938632e-09 0
5.981355e+00 6.116645e-09 0
5.981355e+00 6.219108e-09 0
5.981355e+00 6.318421e-09 0
5.981355e+00 6.484353e-09 0
5.981355e+00 6.727588e-09 0
5.981355e+00 6.990430e-09 0
5.981355e+00 7.194340e-09 0
5.981355e+00 7.303289e-09 0
5.981355e+00 7.348979e-09 0
5.981355e+00 7.401209e-09 0
5.981354e+00 7.513680e-09 0
5.981354e+00 7.690274e-09 0
5.981354e+00 7.893422e-09 0
5.981354e+00 8.079850e-09 0
5.981354e+00 8.231595e-09 0
5.981354e+00 8.361317e-09 0
5.981354e+00 8.494333e-09 0
5.981354e+00 8.645276e-09 0
5.981354e+00 8.807757e-09 0
5.981354e+00 8.962181e-09 0
5.981354e+00 9.091683e-09 0
5.981354e+00 9.191796e-09 0
5.981354e+00 9.267304e-09 0
5.981354e+00 9.322143e-09 0
5.981354e+00 9.353024e-09 0
5.981354e+00 9.350863e-09 0
5.981354e+00 9.307026e-09 0
5.981354e+00 9.219280e-09 0
5.981354e+00 9.092220e-09 0
5.981354e+00 8.932873e-09 0
5.981354e+00 8.746439e-09 0
5.981354e+00 8.534433e-09 0
5.981354e+00 8.296366e-09 0
5.981354e+00 8.033245e-09 0
5.981354e+00 7.749861e-09 0
5.981354e+00 7.454415e-09 0
5.981354e+00 7.155753e-09 0
5.981354e+00 6.861309e-09 0
5.981354e+00 6.576291e-09 0
5.981354e+00 6.304165e-09 0
5.981354e+00 6.048508e-09 0
5.981354e+00 5.813532e-09 0
5.981354e+00 5.603989e-09 0
5.981354e+00 5.424001e-09 0
5.981354e+00 5.276428e-09 0
5.981354e+00 5.162707e-09 0
5.981354e+00 5.082452e-09 0
5.981354e+00 5.032968e-09 0
5.981354e+00 5.009607e-09 0
5.981354e+00 5.005758e-09 0
5.981354e+00 5.012354e-09 0
5.981354e+00 5.017319e-09 0
5.981354e+00 5.006298e-09 0
5.981354e+00 4.965205e-09 0
5.981354e+00 4.882045e-09 0
5.981354e+00 4.745418e-09 0
5.981354e+00 4.548750e-09 0
5.981354e+00 4.290663e-09 0
5.981354e+00 3.977323e-09 0
5.981354e+00 3.624899e-09 0
5.981354e+00 3.251764e-09 0
5.981354e+00 2.874904e-09 0
5.981354e+00 2.500906e-09 0
5.981354e+00 2.107241e-09 0
5.981354e+00 1.589492e-09 0
5.981354e+00 5.191029e-10 0
5.981354e+00 -2.406896e-10 0
8.642006e+00 1.501420e-08 0
8.642006e+00 2.888007e-08 0
8.642006e+00 4.558460e-08 0
8.642006e+00 4.216199e-08 0
8.642006e+00 2.646242e-08 0
8.642006e+00 1.151822e-08 0
8.642006e+00 6.832869e-09 0
8.642006e+00 1.249022e-08 0
8.642006e+00 2.114702e-08 0
8.642006e+00 2.434809e-08 0
8.642006e+00 1.940223e-08 0
8.642006e+00 1.066585e-08 0
8.642006e+00 4.629116e-09 0
8.642006e+00 4.094027e-09 0
8.642006e+00 7.125846e-09 0
8.642006e+00 1.000907e-08 0
8.642006e+00 1.023699e-08 0
8.642006e+00 8.047337e-09 0
8.642006e+00 5.799383e-09 0
8.642006e+00 5.424968e-09 0
8.642006e+00 6.732696e-09 0
8.642006e+00 8.174191e-09 0
8.642006e+00 8.629412e-09 0
8.642006e+00 8.312541e-09 0
8.642006e+00 8.200003e-09 0
8.642006e+00 8.859667e-09 0
8.642006e+00 9.887920e-09 0
8.642006e+00 1.037384e-08 0
8.642006e+00 9.820622e-09 0
8.642006e+00 8.611192e-09 0
8.642006e+00 7.639259e-09 0
8.642006e+00 7.525582e-09 0
8.642006e+00 8.143427e-09 0
8.642006e+00 8.816612e-09 0
8.642006e+00 8.925271e-09 0
8.642006e+00 8.358223e-09 0
8.642006e+00 7.489930e-09 0
8.642006e+00 6.809199e-09 0
8.642006e+00 6.565554e-09 0
8.642006e+00 6.686630e-09 0
8.642006e+00 6.938563e-09 0
8.642006e+00 7.127434e-09 0
8.642006e+00 7.182605e-09 0
8.642006e+00 7.118468e-09 0
8.642006e+00 6.971926e-09 0
8.642006e+00 6.789062e-09 0
8.642006e+00 6.647816e-09 0
8.642006e+00 6.654941e-09 0
8.642006e+00 6.887753e-09 0
8.642006e+00 7.321405e-09 0
8.642006e+00 7.814866e-09 0
8.642006e+00 8.188623e-09 0
8.642006e+00 8.347382e-09 0
8.642006e+00 8.350770e-09 0
8.642006e+00 8.367967e-09 0
8.642006e+00 8.546352e-09 0
8.642006e+00 8.896690e-09 0
8.642006e+00 9.286931e-09 0
8.642006e+00 9.545964e-09 0
8.642006e+00 9.587606e-09 0
8.642006e+00 9.455821e-09 0
8.642006e+00 9.268281e-09 0
8.642006e+00 9.117544e-09 0
8.642006e+00 9.012860e-09 0
8.642006e+00 8.890279e-09 0
8.642006e+00 8.666090e-09 0
8.642006e+00 8.283868e-09 0
8.642006e+00 7.736410e-09 0
8.642006e+00 7.064963e-09 0
8.642006e+00 6.341441e-09 0
8.642006e+00 5.640411e-09 0
8.642006e+00 4.996472e-09 0
8.642006e+00 4.381697e-09 0
8.642006e+00 3.727666e-09 0
8.642006e+00 2.992357e-09 0
8.642006e+00 2.232690e-09 0
8.642006e+00 1.587148e-09 0
8.642006e+00 1.180733e-09 0
8.642006e+00 1.049363e-09 0
8.642006e+00 1.121082e-09 0
8.642006e+00 1.277782e-09 0
8.642006e+00 1.449228e-09 0
8.642006e+00 1.644401e-09 0
8.642006e+00 1.911177e-09 0
8.642006e+00 2.275504e-09 0
8.642006e+00 2.713847e-09 0
8.642006e+00 3.181303e-09 0
8.642006e+00 3.652320e-09 0
8.642006e+00 4.127120e-09 0
8.642006e+00 4.603308e-09 0
8.642006e+00 5.048770e-09 0
8.642006e+00 5.416556e-09 0
8.642006e+00 5.690735e-09 0
8.642006e+00 5.912853e-09 0
8.642006e+00 6.156391e-09 0
8.642006e+00 6.467430e-09 0
8.642006e+00 6.824264e-09 0
8.642006e+00 7.155138e-09 0
8.642006e+00 7.399303e-09 0
8.642006e+00 7.555776e-09 0
8.642006e+00 7.679395e-09 0
8.642006e+00 7.833996e-09 0
8.642006e+00 8.046330e-09 0
8.642006e+00 8.296114e-09 0
8.642006e+00 8.542257e-09 0
8.642006e+00 8.757014e-09 0
8.642006e+00 8.941355e-09 0
8.642006e+00 9.115523e-09 0
8.642006e+00 9.297301e-09 0
8.642006e+00 9.487341e-09 0
8.642006e+00 9.670971e-09 0
8.642006e+00 9.830239e-09 0
8.642006e+00 9.955104e-09 0
8.642006e+00 1.004614e-08 0
8.642006e+00 1.010790e-08 0
8.642006e+00 1.014015e-08 0
8.642006e+00 1.013501e-08 0
8.642006e+00 1.008162e-08 0
8.642006e+00 9.973800e-09 0
8.642006e+00 9.813506e-09 0
8.642006e+00 9.608177e-09 0
8.642006e+00 9.365736e-09 0
8.642006e+00 9.091057e-09 0
8.642006e+00 8.785882e-09 0
8.642006e+00 8.451290e-09 0
8.642006e+00 8.090872e-09 0
8.642006e+00 7.712161e-09 0
8.642006e+00 7.325445e-09 0
8.642006e+00 6.941415e-09 0
8.642006e+00 6.568714e-09 0
8.642006e+00 6.213144e-09 0
8.642006e+00 5.879523e-09 0
8.642006e+00 5.572932e-09 0
8.642006e+00 5.299152e-09 0
8.642006e+00 5.064226e-09 0
8.642006e+00 4.873016e-09 0
8.642006e+00 4.728944e-09 0
8.642006e+00 4.633677e-09 0
8.642006e+00 4.586626e-09 0
8.642006e+00 4.584576e-09 0
8.642006e+00 4.621690e-09 0
8.642006e+00 4.687919e-09 0
8.642006e+00 4.767845e-09 0
8.642006e+00 4.841545e-09 0
8.642006e+00 4.886038e-09 0
8.642006e+00 4.876577e-09 0
8.642006e+00 4.789874e-09 0
8.642006e+00 4.605577e-09 0
8.642006e+00 4.307714e-09 0
8.642006e+00 3.893613e-09 0
8.642006e+00 3.374002e-09 0
8.642006e+00 2.771337e-09 0
8.642006e+00 2.125520e-09 0
8.642006e+00 1.476947e-09 0
8.642006e+00 8.665755e-10 0
8.642006e+00 3.017909e-10 0
8.642006e+00 -2.308904e-10 0
8.642006e+00 -8.178319e-10 0
8.642006e+00 -1.147561e-09 0
1.108436e+01 1.321727e-08 0
1.108436e+01 2.386790e-08 0
1.108436e+01 3.352540e-08 0
1.108436e+01 2.423944e-08 0
1.108436e+01 8.612502e-09 0
1.108436e+01 2.138477e-10 0
1.108436e+01 4.138865e-09 0
1.108436e+01 1.541120e-08 0
1.108436e+01 2.416111e-08 0
1.108436e+01 2.367577e-08 0
1.108436e+01 1.541683e-08 0
1.108436e+01 6.642772e-09 0
1.108436e+01 3.211885e-09 0
1.108436e+01 5.396096e-09 0
1.108436e+01 9.431700e-09 0
1.108436e+01 1.138620e-08 0
1.108436e+01 9.993989e-09 0
1.108436e+01 7.199328e-09 0
1.108436e+01 5.845489e-09 0
1.108436e+01 6.828438e-09 0
1.108436e+01 8.687125e-09 0
1.108436e+01 9.499063e-09 0
1.108436e+01 8.814578e-09 0
1.108436e+01 7.818866e-09 0
1.108436e+01 7.864373e-09 0
1.108436e+01 9.102678e-09 0
1.108436e+01 1.045344e-08 0
1.108436e+01 1.070558e-08 0
1.108436e+01 9.621695e-09 0
1.108436e+01 8.072086e-09 0
1.108436e+01 7.196290e-09 0
1.108436e+01 7.429900e-09 0
1.108436e+01 8.246094e-09 0
1.108436e+01 8.729260e-09 0
1.108436e+01 8.361208e-09 0
1.108436e+01 7.339220e-09 0
1.108436e+01 6.277250e-09 0
1.108436e+01 5.669326e-09 0
1.108436e+01 5.586316e-09 0
1.108436e+01 5.769503e-09 0
1.108436e+01 5.926949e-09 0
1.108436e+01 5.938319e-09 0
1.108436e+01 5.845114e-09 0
1.108436e+01 5.723238e-09 0
1.108436e+01 5.600162e-09 0
1.108436e+01 5.479473e-09 0
1.108436e+01 5.407259e-09 0
1.108436e+01 5.481171e-09 0
1.108436e+01 5.776910e-09 0
1.108436e+01 6.261641e-09 0
1.108436e+01 6.786252e-09 0
1.108436e+01 7.180788e-09 0
1.108436e+01 7.381398e-09 0
1.108436e+01 7.479817e-09 0
1.108436e+01 7.648234e-09 0
1.108436e+01 7.998584e-09 0
1.108436e+01 8.491573e-09 0
1.108436e+01 8.969588e-09 0
1.108436e+01 9.279194e-09 0
1.108436e+01 9.375711e-09 0
1.108436e+01 9.329821e-09 0
1.108436e+01 9.246583e-09 0
1.108436e+01 9.177792e-09 0
1.108436e+01 9.095349e-09 0
1.108436e+01 8.927825e-09 0
1.108436e+01 8.613763e-09 0
1.108436e+01 8.128106e-09 0
1.108436e+01 7.483788e-09 0
1.108436e+01 6.722409e-09 0
1.108436e+01 5.906456e-09 0
1.108436e+01 5.097042e-09 0
1.108436e+01 4.317243e-09 0
1.108436e+01 3.530751e-09 0
1.108436e+01 2.667896e-09 0