<?xml version="1.0"?>
<VTKFile type="StructuredGrid">
<StructuredGrid WholeExtent="0 158 0 30 0 0 ">
<Piece Extent="0 158 0 30 0 0 ">
<Points>
<DataArray type="Float64" format="ascii" NumberOfComponents="3">
0.000000e+00 0.000000e+00 0.000000e+00
3.164557e-02 0.000000e+00 0.000000e+00
6.329114e-02 0.000000e+00 0.000000e+00
9.493671e-02 0.000000e+00 0.000000e+00
1.265823e-01 0.000000e+00 0.000000e+00
1.582278e-01 0.000000e+00 0.000000e+00
1.898734e-01 0.000000e+00 0.000000e+00
2.215190e-01 0.000000e+00 0.000000e+00
2.531646e-01 0.000000e+00 0.000000e+00
2.848101e-01 0.000000e+00 0.000000e+00
3.164557e-01 0.000000e+00 0.000000e+00
3.481013e-01 0.000000e+00 0.000000e+00
3.797468e-01 0.000000e+00 0.000000e+00
4.113924e-01 0.000000e+00 0.000000e+00
4.430380e-01 0.000000e+00 0.000000e+00
4.746835e-01 0.000000e+00 0.000000e+00
5.063291e-01 0.000000e+00 0.000000e+00
5.379747e-01 0.000000e+00 0.000000e+00
5.696203e-01 0.000000e+00 0.000000e+00
6.012658e-01 0.000000e+00 0.000000e+00
6.329114e-01 0.000000e+00 0.000000e+00
6.645570e-01 0.000000e+00 0.000000e+00
6.962025e-01 0.000000e+00 0.000000e+00
7.278481e-01 0.000000e+00 0.000000e+00
7.594937e-01 0.000000e+00 0.000000e+00
7.911392e-01 0.000000e+00 0.000000e+00
8.227848e-01 0.000000e+00 0.000000e+00
8.544304e-01 0.000000e+00 0.000000e+00
8.860759e-01 0.000000e+00 0.000000e+00
9.177215e-01 0.000000e+00 0.000000e+00
9.493671e-01 0.000000e+00 0.000000e+00
9.810127e-01 0.000000e+00 0.000000e+00
1.012658e+00 0.000000e+00 0.000000e+00
1.044304e+00 0.000000e+00 0.000000e+00
1.075949e+00 0.000000e+00 0.000000e+00
1.107595e+00 0.000000e+00 0.000000e+00
1.139241e+00 0.000000e+00 0.000000e+00
1.170886e+00 0.000000e+00 0.000000e+00
1.202532e+00 0.000000e+00 0.000000e+00
1.234177e+00 0.000000e+00 0.000000e+00
1.265823e+00 0.000000e+00 0.000000e+00
1.297468e+00 0.000000e+00 0.000000e+00
1.329114e+00 0.000000e+00 0.000000e+00
1.360759e+00 0.000000e+00 0.000000e+00
1.392405e+00 0.000000e+00 0.000000e+00
1.424051e+00 0.000000e+00 0.000000e+00
1.455696e+00 0.000000e+00 0.000000e+00
1.487342e+00 0.000000e+00 0.000000e+00
1.518987e+00 0.000000e+00 0.000000e+00
1.550633e+00 0.000000e+00 0.000000e+00
1.582278e+00 0.000000e+00 0.000000e+00
1.613924e+00 0.000000e+00 0.000000e+00
1.645570e+00 0.000000e+00 0.000000e+00
1.677215e+00 0.000000e+00 0.000000e+00
1.708861e+00 0.000000e+00 0.000000e+00
1.740506e+00 0.000000e+00 0.000000e+00
1.772152e+00 0.000000e+00 0.000000e+00
1.803797e+00 0.000000e+00 0.000000e+00
1.835443e+00 0.000000e+00 0.000000e+00
1.867089e+00 0.000000e+00 0.000000e+00
1.898734e+00 0.000000e+00 0.000000e+00
1.930380e+00 0.000000e+00 0.000000e+00
1.962025e+00 0.000000e+00 0.000000e+00
1.993671e+00 0.000000e+00 0.000000e+00
2.025316e+00 0.000000e+00 0.000000e+00
2.056962e+00 0.000000e+00 0.000000e+00
2.088608e+00 0.000000e+00 0.000000e+00
2.120253e+00 0.000000e+00 0.000000e+00
2.151899e+00 0.000000e+00 0.000000e+00
2.183544e+00 0.000000e+00 0.000000e+00
2.215190e+00 0.000000e+00 0.000000e+00
2.246835e+00 0.000000e+00 0.000000e+00
2.278481e+00 0.000000e+00 0.000000e+00
2.310127e+00 0.000000e+00 0.000000e+00
2.341772e+00 0.000000e+00 0.000000e+00
2.373418e+00 0.000000e+00 0.000000e+00
2.405063e+00 0.000000e+00 0.000000e+00
2.436709e+00 0.000000e+00 0.000000e+00
2.468354e+00 0.000000e+00 0.000000e+00
2.500000e+00 0.000000e+00 0.000000e+00
2.531646e+00 0.000000e+00 0.000000e+00
2.563291e+00 0.000000e+00 0.000000e+00
2.594937e+00 0.000000e+00 0.000000e+00
2.626582e+00 0.000000e+00 0.000000e+00
2.658228e+00 0.000000e+00 0.000000e+00
2.689873e+00 0.000000e+00 0.000000e+00
2.721519e+00 0.000000e+00 0.000000e+00
2.753165e+00 0.000000e+00 0.000000e+00
2.784810e+00 0.000000e+00 0.000000e+00
2.816456e+00 0.000000e+00 0.000000e+00
2.848101e+00 0.000000e+00 0.000000e+00
2.879747e+00 0.000000e+00 0.000000e+00
2.911392e+00 0.000000e+00 0.000000e+00
2.943038e+00 0.000000e+00 0.000000e+00
2.974684e+00 0.000000e+00 0.000000e+00
3.006329e+00 0.000000e+00 0.000000e+00
3.037975e+00 0.000000e+00 0.000000e+00
3.069620e+00 0.000000e+00 0.000000e+00
3.101266e+00 0.000000e+00 0.000000e+00
3.132911e+00 0.000000e+00 0.000000e+00
3.164557e+00 0.000000e+00 0.000000e+00
3.196203e+00 0.000000e+00 0.000000e+00
3.227848e+00 0.000000e+00 0.000000e+00
3.259494e+00 0.000000e+00 0.000000e+00
3.291139e+00 0.000000e+00 0.000000e+00
3.322785e+00 0.000000e+00 0.000000e+00
3.354430e+00 0.000000e+00 0.000000e+00
3.386076e+00 0.000000e+00 0.000000e+00
3.417722e+00 0.000000e+00 0.000000e+00
3.449367e+00 0.000000e+00 0.000000e+00
3.481013e+00 0.000000e+00 0.000000e+00
3.512658e+00 0.000000e+00 0.000000e+00
3.544304e+00 0.000000e+00 0.000000e+00
3.575949e+00 0.000000e+00 0.000000e+00
3.607595e+00 0.000000e+00 0.000000e+00
3.639241e+00 0.000000e+00 0.000000e+00
3.670886e+00 0.000000e+00 0.000000e+00
3.702532e+00 0.000000e+00 0.000000e+00
3.734177e+00 0.000000e+00 0.000000e+00
3.765823e+00 0.000000e+00 0.000000e+00
3.797468e+00 0.000000e+00 0.000000e+00
3.829114e+00 0.000000e+00 0.000000e+00
3.860759e+00 0.000000e+00 0.000000e+00
3.892405e+00 0.000000e+00 0.000000e+00
3.924051e+00 0.000000e+00 0.000000e+00
3.955696e+00 0.000000e+00 0.000000e+00
3.987342e+00 0.000000e+00 0.000000e+00
4.018987e+00 0.000000e+00 0.000000e+00
4.050633e+00 0.000000e+00 0.000000e+00
4.082278e+00 0.000000e+00 0.000000e+00
4.113924e+00 0.000000e+00 0.000000e+00
4.145570e+00 0.000000e+00 0.000000e+00
4.177215e+00 0.000000e+00 0.000000e+00
4.208861e+00 0.000000e+00 0.000000e+00
4.240506e+00 0.000000e+00 0.000000e+00
4.272152e+00 0.000000e+00 0.000000e+00
4.303797e+00 0.000000e+00 0.000000e+00
4.335443e+00 0.000000e+00 0.000000e+00
4.367089e+00 0.000000e+00 0.000000e+00
4.398734e+00 0.000000e+00 0.000000e+00
4.430380e+00 0.000000e+00 0.000000e+00
4.462025e+00 0.000000e+00 0.000000e+00
4.493671e+00 0.000000e+00 0.000000e+00
4.525316e+00 0.000000e+00 0.000000e+00
4.556962e+00 0.000000e+00 0.000000e+00
4.588608e+00 0.000000e+00 0.000000e+00
4.620253e+00 0.000000e+00 0.000000e+00
4.651899e+00 0.000000e+00 0.000000e+00
4.683544e+00 0.000000e+00 0.000000e+00
4.715190e+00 0.000000e+00 0.000000e+00
4.746835e+00 0.000000e+00 0.000000e+00
4.778481e+00 0.000000e+00 0.000000e+00
4.810127e+00 0.000000e+00 0.000000e+00
4.841772e+00 0.000000e+00 0.000000e+00
4.873418e+00 0.000000e+00 0.000000e+00
4.905063e+00 0.000000e+00 0.000000e+00
4.936709e+00 0.000000e+00 0.000000e+00
4.968354e+00 0.000000e+00 0.000000e+00
5.000000e+00 0.000000e+00 0.000000e+00
0.000000e+00 3.333333e-02 0.000000e+00
3.164557e-02 3.333333e-02 0.000000e+00
6.329114e-02 3.333333e-02 0.000000e+00
9.493671e-02 3.333333e-02 0.000000e+00
1.265823e-01 3.333333e-02 0.000000e+00
1.582278e-01 3.333333e-02 0.000000e+00
1.898734e-01 3.333333e-02 0.000000e+00
2.215190e-01 3.333333e-02 0.000000e+00
2.531646e-01 3.333333e-02 0.000000e+00
2.848101e-01 3.333333e-02 0.000000e+00
3.164557e-01 3.333333e-02 0.000000e+00
3.481013e-01 3.333333e-02 0.000000e+00
3.797468e-01 3.333333e-02 0.000000e+00
4.113924e-01 3.333333e-02 0.000000e+00
4.430380e-01 3.333333e-02 0.000000e+00
4.746835e-01 3.333333e-02 0.000000e+00
5.063291e-01 3.333333e-02 0.000000e+00
5.379747e-01 3.333333e-02 0.000000e+00
5.696203e-01 3.333333e-02 0.000000e+00
6.012658e-01 3.333333e-02 0.000000e+00
6.329114e-01 3.333333e-02 0.000000e+00
6.645570e-01 3.333333e-02 0.000000e+00
6.962025e-01 3.333333e-02 0.000000e+00
7.278481e-01 3.333333e-02 0.000000e+00
7.594937e-01 3.333333e-02 0.000000e+00
7.911392e-01 3.333333e-02 0.000000e+00
8.227848e-01 3.333333e-02 0.000000e+00
8.544304e-01 3.333333e-02 0.000000e+00
8.860759e-01 3.333333e-02 0.000000e+00
9.177215e-01 3.333333e-02 0.000000e+00
9.493671e-01 3.333333e-02 0.000000e+00
9.810127e-01 3.333333e-02 0.000000e+00
1.012658e+00 3.333333e-02 0.000000e+00
1.044304e+00 3.333333e-02 0.000000e+00
1.075949e+00 3.333333e-02 0.000000e+00
1.107595e+00 3.333333e-02 0.000000e+00
1.139241e+00 3.333333e-02 0.000000e+00
1.170886e+00 3.333333e-02 0.000000e+00
1.202532e+00 3.333333e-02 0.000000e+00
1.234177e+00 3.333333e-02 0.000000e+00
1.265823e+00 3.333333e-02 0.000000e+00
1.297468e+00 3.333333e-02 0.000000e+00
1.329114e+00 3.333333e-02 0.000000e+00
1.360759e+00 3.333333e-02 0.000000e+00
1.392405e+00 3.333333e-02 0.000000e+00
1.424051e+00 3.333333e-02 0.000000e+00
1.455696e+00 3.333333e-02 0.000000e+00
1.487342e+00 3.333333e-02 0.000000e+00
1.518987e+00 3.333333e-02 0.000000e+00
1.550633e+00 3.333333e-02 0.000000e+00
1.582278e+00 3.333333e-02 0.000000e+00
1.613924e+00 3.333333e-02 0.000000e+00
1.645570e+00 3.333333e-02 0.000000e+00
1.677215e+00 3.333333e-02 0.000000e+00
1.708861e+00 3.333333e-02 0.000000e+00
1.740506e+00 3.333333e-02 0.000000e+00
1.772152e+00 3.333333e-02 0.000000e+00
1.803797e+00 3.333333e-02 0.000000e+00
1.835443e+00 3.333333e-02 0.000000e+00
1.867089e+00 3.333333e-02 0.000000e+00
1.898734e+00 3.333333e-02 0.000000e+00
1.930380e+00 3.333333e-02 0.000000e+00
1.962025e+00 3.333333e-02 0.000000e+00
1.993671e+00 3.333333e-02 0.000000e+00
2.025316e+00 3.333333e-02 0.000000e+00
2.056962e+00 3.333333e-02 0.000000e+00
2.088608e+00 3.333333e-02 0.000000e+00
2.120253e+00 3.333333e-02 0.000000e+00
2.151899e+00 3.333333e-02 0.000000e+00
2.183544e+00 3.333333e-02 0.000000e+00
2.215190e+00 3.333333e-02 0.000000e+00
2.246835e+00 3.333333e-02 0.000000e+00
2.278481e+00 3.333333e-02 0.000000e+00
2.310127e+00 3.333333e-02 0.000000e+00
2.341772e+00 3.333333e-02 0.000000e+00
2.373418e+00 3.333333e-02 0.000000e+00
2.405063e+00 3.333333e-02 0.000000e+00
2.436709e+00 3.333333e-02 0.000000e+00
2.468354e+00 3.333333e-02 0.000000e+00
2.500000e+00 3.333333e-02 0.000000e+00
2.531646e+00 3.333333e-02 0.000000e+00
2.563291e+00 3.333333e-02 0.000000e+00
2.594937e+00 3.333333e-02 0.000000e+00
2.626582e+00 3.333333e-02 0.000000e+00
2.658228e+00 3.333333e-02 0.000000e+00
2.689873e+00 3.333333e-02 0.000000e+00
2.721519e+00 3.333333e-02 0.000000e+00
2.753165e+00 3.333333e-02 0.000000e+00
2.784810e+00 3.333333e-02 0.000000e+00
2.816456e+00 3.333333e-02 0.000000e+00
2.848101e+00 3.333333e-02 0.000000e+00
2.879747e+00 3.333333e-02 0.000000e+00
[...]
<PointData>
<DataArray Name="Velocity" type="Float64" format="ascii" NumberOfComponents="3">
0.000000e+00 0.000000e+00 0
0.000000e+00 0.000000e+00 0
0.000000e+00 0.000000e+00 0
0.000000e+00 0.000000e+00 0
0.000000e+00 0.000000e+00 0
0.000000e+00 0.000000e+00 0
0.000000e+00 0.000000e+00 0
0.000000e+00 0.000000e+00 0
0.000000e+00 0.000000e+00 0
0.000000e+00 0.000000e+00 0
0.000000e+00 0.000000e+00 0
0.000000e+00 0.000000e+00 0
0.000000e+00 0.000000e+00 0
0.000000e+00 0.000000e+00 0
0.000000e+00 0.000000e+00 0
0.000000e+00 0.000000e+00 0
0.000000e+00 0.000000e+00 0
0.000000e+00 0.000000e+00 0
0.000000e+00 0.000000e+00 0
-9.130364e-19 0.000000e+00 0
0.000000e+00 0.000000e+00 0
0.000000e+00 0.000000e+00 0
0.000000e+00 0.000000e+00 0
-9.131236e-19 0.000000e+00 0
0.000000e+00 0.000000e+00 0
0.000000e+00 0.000000e+00 0
0.000000e+00 0.000000e+00 0
-9.132063e-19 0.000000e+00 0
0.000000e+00 0.000000e+00 0
0.000000e+00 0.000000e+00 0
0.000000e+00 0.000000e+00 0
-9.132833e-19 0.000000e+00 0
0.000000e+00 0.000000e+00 0
0.000000e+00 0.000000e+00 0
0.000000e+00 0.000000e+00 0
0.000000e+00 0.000000e+00 0
0.000000e+00 0.000000e+00 0
0.000000e+00 0.000000e+00 0
-1.826798e-18 0.000000e+00 0
0.000000e+00 0.000000e+00 0
0.000000e+00 0.000000e+00 0
0.000000e+00 0.000000e+00 0
0.000000e+00 0.000000e+00 0
0.000000e+00 0.000000e+00 0
0.000000e+00 0.000000e+00 0
0.000000e+00 0.000000e+00 0
-1.827039e-18 0.000000e+00 0
0.000000e+00 0.000000e+00 0
0.000000e+00 0.000000e+00 0
0.000000e+00 0.000000e+00 0
0.000000e+00 0.000000e+00 0
0.000000e+00 0.000000e+00 0
0.000000e+00 0.000000e+00 0
0.000000e+00 0.000000e+00 0
-1.827314e-18 0.000000e+00 0
0.000000e+00 0.000000e+00 0
0.000000e+00 0.000000e+00 0
0.000000e+00 0.000000e+00 0
0.000000e+00 0.000000e+00 0
0.000000e+00 0.000000e+00 0
0.000000e+00 0.000000e+00 0
0.000000e+00 0.000000e+00 0
-1.827601e-18 0.000000e+00 0
0.000000e+00 0.000000e+00 0
0.000000e+00 0.000000e+00 0
0.000000e+00 0.000000e+00 0
0.000000e+00 0.000000e+00 0
0.000000e+00 0.000000e+00 0
0.000000e+00 0.000000e+00 0
0.000000e+00 0.000000e+00 0
0.000000e+00 0.000000e+00 0
0.000000e+00 0.000000e+00 0
0.000000e+00 0.000000e+00 0
0.000000e+00 0.000000e+00 0
0.000000e+00 0.000000e+00 0
0.000000e+00 0.000000e+00 0
0.000000e+00 0.000000e+00 0
0.000000e+00 0.000000e+00 0
0.000000e+00 0.000000e+00 0
0.000000e+00 0.000000e+00 0
0.000000e+00 0.000000e+00 0
0.000000e+00 0.000000e+00 0
0.000000e+00 0.000000e+00 0
0.000000e+00 0.000000e+00 0
0.000000e+00 0.000000e+00 0
0.000000e+00 0.000000e+00 0
0.000000e+00 0.000000e+00 0
0.000000e+00 0.000000e+00 0
0.000000e+00 0.000000e+00 0
0.000000e+00 0.000000e+00 0
0.000000e+00 0.000000e+00 0
0.000000e+00 0.000000e+00 0
0.000000e+00 0.000000e+00 0
0.000000e+00 0.000000e+00 0
0.000000e+00 0.000000e+00 0
0.000000e+00 0.000000e+00 0
0.000000e+00 0.000000e+00 0
0.000000e+00 0.000000e+00 0
0.000000e+00 0.000000e+00 0
0.000000e+00 0.000000e+00 0
0.000000e+00 0.000000e+00 0
0.000000e+00 0.000000e+00 0
0.000000e+00 0.000000e+00 0
0.000000e+00 0.000000e+00 0
0.000000e+00 0.000000e+00 0
0.000000e+00 0.000000e+00 0
0.000000e+00 0.000000e+00 0
0.000000e+00 0.000000e+00 0
0.000000e+00 0.000000e+00 0
0.000000e+00 0.000000e+00 0
0.000000e+00 0.000000e+00 0
0.000000e+00 0.000000e+00 0
0.000000e+00 0.000000e+00 0
0.000000e+00 0.000000e+00 0
0.000000e+00 0.000000e+00 0
0.000000e+00 0.000000e+00 0
0.000000e+00 0.000000e+00 0
0.000000e+00 0.000000e+00 0
0.000000e+00 0.000000e+00 0
0.000000e+00 0.000000e+00 0
0.000000e+00 0.000000e+00 0
0.000000e+00 0.000000e+00 0
0.000000e+00 0.000000e+00 0
0.000000e+00 0.000000e+00 0
0.000000e+00 0.000000e+00 0
0.000000e+00 0.000000e+00 0
0.000000e+00 0.000000e+00 0
0.000000e+00 0.000000e+00 0
0.000000e+00 0.000000e+00 0
0.000000e+00 0.000000e+00 0
0.000000e+00 0.000000e+00 0
0.000000e+00 0.000000e+00 0
0.000000e+00 0.000000e+00 0
0.000000e+00 0.000000e+00 0
0.000000e+00 0.000000e+00 0
0.000000e+00 0.000000e+00 0
0.000000e+00 0.000000e+00 0
0.000000e+00 0.000000e+00 0
0.000000e+00 0.000000e+00 0
0.000000e+00 0.000000e+00 0
0.000000e+00 0.000000e+00 0
0.000000e+00 0.000000e+00 0
0.000000e+00 0.000000e+00 0
0.000000e+00 0.000000e+00 0
0.000000e+00 0.000000e+00 0
0.000000e+00 0.000000e+00 0
0.000000e+00 0.000000e+00 0
0.000000e+00 0.000000e+00 0
0.000000e+00 0.000000e+00 0
0.000000e+00 0.000000e+00 0
0.000000e+00 0.000000e+00 0
0.000000e+00 0.000000e+00 0
0.000000e+00 0.000000e+00 0
0.000000e+00 0.000000e+00 0
0.000000e+00 0.000000e+00 0
0.000000e+00 0.000000e+00 0
0.000000e+00 0.000000e+00 0
0.000000e+00 0.000000e+00 0
0.000000e+00 0.000000e+00 0
2.265487e+00 4.320311e-08 0
2.265487e+00 8.022217e-08 0
2.265487e+00 1.292623e-07 0
2.265487e+00 1.314079e-07 0
2.265487e+00 1.028136e-07 0
2.265487e+00 6.974734e-08 0
2.265487e+00 5.020531e-08 0
2.265487e+00 4.699434e-08 0
2.265487e+00 5.131455e-08 0
2.265487e+00 5.214735e-08 0
2.265487e+00 4.626883e-08 0
2.265487e+00 3.745830e-08 0
2.265487e+00 2.952777e-08 0
2.265487e+00 2.334776e-08 0
2.265487e+00 1.830521e-08 0
2.265487e+00 1.366456e-08 0
2.265487e+00 9.540119e-09 0
2.265487e+00 7.021262e-09 0
2.265487e+00 6.877764e-09 0
2.265486e+00 8.219992e-09 0
2.265486e+00 9.449055e-09 0
2.265486e+00 9.692017e-09 0
2.265486e+00 8.971920e-09 0
2.265486e+00 8.013120e-09 0
2.265486e+00 7.606008e-09 0
2.265486e+00 8.048221e-09 0
2.265486e+00 9.109770e-09 0
2.265486e+00 1.028140e-08 0
2.265486e+00 1.108813e-08 0
2.265486e+00 1.129099e-08 0
2.265486e+00 1.092480e-08 0
2.265486e+00 1.023544e-08 0
2.265486e+00 9.565721e-09 0
2.265486e+00 9.211564e-09 0
2.265486e+00 9.285991e-09 0
2.265486e+00 9.654370e-09 0
2.265486e+00 1.000133e-08 0
2.265486e+00 1.001922e-08 0
2.265486e+00 9.610660e-09 0
2.265486e+00 8.963672e-09 0
2.265486e+00 8.433359e-09 0
2.265486e+00 8.303598e-09 0
2.265486e+00 8.598224e-09 0
2.265486e+00 9.079702e-09 0
2.265486e+00 9.432643e-09 0
2.265486e+00 9.489987e-09 0
2.265486e+00 9.333483e-09 0
2.265486e+00 9.205002e-09 0
2.265486e+00 9.311851e-09 0
2.265486e+00 9.679946e-09 0
2.265486e+00 1.015550e-08 0
2.265486e+00 1.053362e-08 0
2.265486e+00 1.070302e-08 0
2.265486e+00 1.070167e-08 0
2.265486e+00 1.065928e-08 0
2.265486e+00 1.068672e-08 0
2.265486e+00 1.079874e-08 0
2.265486e+00 1.091813e-08 0
2.265486e+00 1.094515e-08 0
2.265486e+00 1.083415e-08 0
2.265486e+00 1.062267e-08 0
2.265486e+00 1.039753e-08 0
2.265486e+00 1.022835e-08 0
2.265486e+00 1.011941e-08 0
2.265486e+00 1.001539e-08 0
2.265486e+00 9.854607e-09 0
2.265486e+00 9.625599e-09 0
2.265486e+00 9.380340e-09 0
2.265486e+00 9.192638e-09 0
2.265486e+00 9.096279e-09 0
2.265486e+00 9.055814e-09 0
2.265486e+00 8.996179e-09 0
2.265486e+00 8.866309e-09 0
2.265486e+00 8.681596e-09 0
2.265486e+00 8.508768e-09 0
2.265486e+00 8.407624e-09 0
2.265486e+00 8.381872e-09 0
2.265486e+00 8.381781e-09 0
2.265486e+00 8.353574e-09 0
2.265486e+00 8.289722e-09 0
2.265486e+00 8.234689e-09 0
2.265486e+00 8.243469e-09 0
2.265486e+00 8.334371e-09 0
2.265486e+00 8.478327e-09 0
2.265486e+00 8.630101e-09 0
2.265486e+00 8.769736e-09 0
2.265486e+00 8.915526e-09 0
2.265486e+00 9.098016e-09 0
2.265486e+00 9.321562e-09 0
2.265486e+00 9.551048e-09 0
2.265486e+00 9.736690e-09 0
2.265486e+00 9.852073e-09 0
2.265486e+00 9.911025e-09 0
2.265486e+00 9.951114e-09 0
2.265486e+00 9.999031e-09 0
2.265486e+00 1.004748e-08 0
2.265486e+00 1.006268e-08 0
2.265486e+00 1.001469e-08 0
2.265486e+00 9.904304e-09 0
2.265486e+00 9.764994e-09 0
2.265486e+00 9.639052e-09 0
2.265486e+00 9.548487e-09 0
2.265486e+00 9.483448e-09 0
2.265486e+00 9.416171e-09 0
2.265486e+00 9.328966e-09 0
2.265486e+00 9.232286e-09 0
2.265486e+00 9.158316e-09 0
2.265486e+00 9.136031e-09 0
2.265486e+00 9.166956e-09 0
2.265486e+00 9.223322e-09 0
2.265486e+00 9.270652e-09 0
2.265486e+00 9.295571e-09 0
2.265486e+00 9.314965e-09 0
2.265486e+00 9.359079e-09 0
2.265486e+00 9.442783e-09 0
2.265486e+00 9.548945e-09 0
2.265486e+00 9.640084e-09 0
2.265486e+00 9.684304e-09 0
2.265486e+00 9.675495e-09 0
2.265486e+00 9.631935e-09 0
2.265486e+00 9.574781e-09 0
2.265486e+00 9.510615e-09 0
2.265486e+00 9.429819e-09 0
2.265486e+00 9.317329e-09 0
2.265486e+00 9.166032e-09 0
2.265486e+00 8.980623e-09 0
2.265486e+00 8.771807e-09 0
2.265486e+00 8.549731e-09 0
2.265486e+00 8.320688e-09 0
2.265486e+00 8.088148e-09 0
2.265486e+00 7.855812e-09 0
2.265486e+00 7.629123e-09 0
2.265486e+00 7.414366e-09 0
2.265486e+00 7.217137e-09 0
2.265486e+00 7.041131e-09 0
2.265486e+00 6.887796e-09 0
2.265486e+00 6.757530e-09 0
2.265486e+00 6.650697e-09 0
2.265486e+00 6.567340e-09 0
2.265486e+00 6.505958e-09 0
2.265486e+00 6.463801e-09 0
2.265486e+00 6.436869e-09 0
2.265486e+00 6.421330e-09 0
2.265486e+00 6.413265e-09 0
2.265486e+00 6.409556e-09 0
2.265486e+00 6.407631e-09 0
2.265486e+00 6.404604e-09 0
2.265486e+00 6.397791e-09 0
2.265486e+00 6.384877e-09 0
2.265486e+00 6.363847e-09 0
2.265486e+00 6.332303e-09 0
2.265486e+00 6.287521e-09 0
2.265486e+00 6.225284e-09 0
2.265486e+00 6.134151e-09 0
2.265486e+00 5.990902e-09 0
2.265486e+00 5.730348e-09 0
2.265486e+00 5.166920e-09 0
2.265486e+00 3.098051e-09 0
2.265486e+00 1.420206e-09 0
4.319235e+00 3.574748e-08 0
4.319235e+00 6.792632e-08 0
4.319235e+00 1.056331e-07 0
4.319235e+00 9.891071e-08 0
4.319235e+00 7.211006e-08 0
4.319235e+00 5.110522e-08 0
4.319235e+00 4.689883e-08 0
4.319235e+00 5.419603e-08 0
4.319235e+00 6.084784e-08 0
4.319235e+00 5.888598e-08 0
4.319235e+00 4.953564e-08 0
4.319235e+00 3.901975e-08 0
4.319235e+00 3.179177e-08 0
4.319235e+00 2.819740e-08 0
4.319235e+00 2.593117e-08 0
4.319235e+00 2.276255e-08 0
4.319235e+00 1.850725e-08 0
4.319235e+00 1.476590e-08 0
4.319235e+00 1.295700e-08 0
4.319235e+00 1.309572e-08 0
4.319235e+00 1.418666e-08 0
4.319235e+00 1.497059e-08 0
4.319235e+00 1.459562e-08 0
4.319235e+00 1.313224e-08 0
4.319235e+00 1.140001e-08 0
4.319235e+00 1.035897e-08 0
4.319235e+00 1.047394e-08 0
4.319235e+00 1.144069e-08 0
4.319235e+00 1.243777e-08 0
4.319235e+00 1.270088e-08 0
4.319235e+00 1.201115e-08 0
4.319235e+00 1.077567e-08 0
4.319235e+00 9.695834e-09 0
4.319235e+00 9.294895e-09 0
4.319235e+00 9.618237e-09 0
4.319235e+00 1.026987e-08 0
4.319235e+00 1.071471e-08 0
4.319235e+00 1.062348e-08 0
4.319235e+00 1.004952e-08 0
4.319235e+00 9.356022e-09 0
4.319235e+00 8.963971e-09 0
4.319235e+00 9.088099e-09 0
4.319235e+00 9.623128e-09 0
4.319235e+00 1.024159e-08 0
4.319235e+00 1.062667e-08 0
4.319235e+00 1.067715e-08 0
4.319235e+00 1.054769e-08 0
4.319235e+00 1.050962e-08 0
4.319235e+00 1.074611e-08 0
4.319235e+00 1.123309e-08 0
4.319235e+00 1.178052e-08 0
4.319235e+00 1.218332e-08 0
4.319235e+00 1.235793e-08 0
4.319235e+00 1.236993e-08 0
4.319235e+00 1.235270e-08 0
4.319235e+00 1.239647e-08 0
4.319235e+00 1.249251e-08 0
4.319235e+00 1.255975e-08 0
4.319235e+00 1.251673e-08 0
4.319235e+00 1.233832e-08 0
4.319235e+00 1.206207e-08 0
4.319235e+00 1.175172e-08 0
4.319235e+00 1.145221e-08 0
4.319235e+00 1.116764e-08 0
4.319235e+00 1.087200e-08 0
4.319235e+00 1.053958e-08 0
4.319235e+00 1.017117e-08 0
4.319235e+00 9.798135e-09 0
4.319235e+00 9.462555e-09 0
4.319235e+00 9.188680e-09 0
4.319235e+00 8.968017e-09 0
4.319235e+00 8.770023e-09 0
4.319235e+00 8.569893e-09 0
4.319235e+00 8.371038e-09 0
4.319235e+00 8.203740e-09 0
4.319235e+00 8.101698e-09 0
4.319235e+00 8.076764e-09 0
4.319235e+00 8.112844e-09 0
4.319235e+00 8.183249e-09 0
4.319235e+00 8.274377e-09 0
4.319235e+00 8.394099e-09 0
4.319235e+00 8.559880e-09 0
4.319235e+00 8.780097e-09 0
4.319235e+00 9.046101e-09 0
4.319235e+00 9.340917e-09 0
4.319235e+00 9.654118e-09 0
4.319235e+00 9.986045e-09 0
4.319235e+00 1.033567e-08 0
4.319235e+00 1.068661e-08 0
4.319235e+00 1.100937e-08 0
4.319235e+00 1.127852e-08 0
4.319235e+00 1.148950e-08 0
4.319235e+00 1.165950e-08 0
4.319235e+00 1.180907e-08 0
4.319235e+00 1.194023e-08 0
4.319235e+00 1.203149e-08 0
4.319235e+00 1.205509e-08 0
4.319235e+00 1.200145e-08 0
4.319235e+00 1.188957e-08 0
4.319235e+00 1.175466e-08 0
4.319235e+00 1.162454e-08 0
4.319235e+00 1.150399e-08 0
4.319235e+00 1.137876e-08 0
4.319235e+00 1.123472e-08 0
4.319235e+00 1.107537e-08 0
4.319235e+00 1.092410e-08 0
4.319235e+00 1.081010e-08 0
4.319235e+00 1.074810e-08 0
4.319235e+00 1.072938e-08 0
4.319235e+00 1.073040e-08 0
4.319235e+00 1.073222e-08 0
4.319235e+00 1.073594e-08 0
4.319235e+00 1.076026e-08 0
4.319235e+00 1.082344e-08 0
4.319235e+00 1.092369e-08 0
4.319235e+00 1.103608e-08 0
4.319235e+00 1.112633e-08 0
4.319235e+00 1.117241e-08 0
4.319235e+00 1.117443e-08 0
4.319235e+00 1.114660e-08 0
4.319235e+00 1.110125e-08 0
4.319235e+00 1.103650e-08 0
4.319235e+00 1.093884e-08 0
4.319235e+00 1.079497e-08 0
4.319235e+00 1.060060e-08 0
4.319235e+00 1.036195e-08 0
4.319235e+00 1.009130e-08 0
4.319235e+00 9.800036e-09 0
4.319235e+00 9.495527e-09 0
4.319235e+00 9.181684e-09 0
4.319235e+00 8.862572e-09 0
4.319235e+00 8.545247e-09 0
4.319235e+00 8.239314e-09 0
4.319235e+00 7.953949e-09 0
4.319235e+00 7.695008e-09 0
4.319235e+00 7.465134e-09 0
4.319235e+00 7.265834e-09 0
4.319235e+00 7.098593e-09 0
4.319235e+00 6.964095e-09 0
4.319235e+00 6.861027e-09 0
4.319235e+00 6.785672e-09 0
4.319235e+00 6.732701e-09 0
4.319235e+00 6.696622e-09 0
4.319235e+00 6.672169e-09 0
4.319235e+00 6.655251e-09 0
4.319235e+00 6.641339e-09 0
4.319235e+00 6.625963e-09 0
4.319235e+00 6.604649e-09 0
4.319235e+00 6.573195e-09 0
4.319235e+00 6.527720e-09 0
4.319235e+00 6.463756e-09 0
4.319235e+00 6.376381e-09 0
4.319235e+00 6.255329e-09 0
4.319235e+00 6.081789e-09 0
4.319235e+00 5.818979e-09 0
4.319235e+00 5.386475e-09 0
4.319235e+00 4.621293e-09 0
4.319235e+00 3.140089e-09 0
4.319235e+00 2.151553e-09 0
6.171622e+00 2.458018e-08 0
6.171622e+00 4.489319e-08 0
6.171622e+00 6.347065e-08 0
6.171622e+00 4.880644e-08 0
6.171622e+00 2.751299e-08 0
6.171622e+00 2.078368e-08 0
6.171622e+00 3.071071e-08 0
6.171622e+00 4.639576e-08 0
6.171622e+00 5.540845e-08 0
6.171622e+00 5.312784e-08 0
6.171622e+00 4.332484e-08 0
6.171622e+00 3.280535e-08 0
6.171622e+00 2.600541e-08 0
6.171622e+00 2.344730e-08 0
6.171622e+00 2.327752e-08 0
6.171622e+00 2.324646e-08 0
6.171622e+00 2.203963e-08 0
6.171622e+00 1.982590e-08 0
6.171622e+00 1.774987e-08 0
6.171622e+00 1.684222e-08 0
6.171622e+00 1.721055e-08 0
6.171622e+00 1.798613e-08 0
6.171622e+00 1.795336e-08 0
6.171622e+00 1.646469e-08 0
6.171622e+00 1.400492e-08 0
6.171622e+00 1.184154e-08 0
6.171622e+00 1.104165e-08 0
6.171622e+00 1.166313e-08 0
6.171622e+00 1.276422e-08 0
6.171622e+00 1.317496e-08 0
6.171622e+00 1.236037e-08 0
6.171622e+00 1.072353e-08 0
6.171622e+00 9.206968e-09 0
6.171622e+00 8.572578e-09 0
6.171622e+00 8.920909e-09 0
6.171622e+00 9.736596e-09 0
6.171622e+00 1.032425e-08 0
6.171622e+00 1.027881e-08 0
6.171622e+00 9.689952e-09 0
6.171622e+00 9.005364e-09 0
6.171622e+00 8.699714e-09 0
6.171622e+00 8.981544e-09 0
6.171622e+00 9.705345e-09 0
6.171622e+00 1.050993e-08 0
6.171622e+00 1.106834e-08 0
6.171622e+00 1.128123e-08 0
6.171622e+00 1.129855e-08 0
6.171622e+00 1.137638e-08 0
6.171622e+00 1.168419e-08 0
6.171622e+00 1.219892e-08 0
6.171622e+00 1.274650e-08 0
6.171622e+00 1.314016e-08 0
6.171622e+00 1.330345e-08 0
6.171622e+00 1.329429e-08 0
6.171622e+00 1.323154e-08 0
6.171622e+00 1.319586e-08 0
6.171622e+00 1.318115e-08 0
6.171622e+00 1.312066e-08 0
6.171622e+00 1.295216e-08 0
6.171622e+00 1.266567e-08 0
6.171622e+00 1.230286e-08 0
6.171622e+00 1.191956e-08 0
6.171622e+00 1.154737e-08 0
6.171622e+00 1.118309e-08 0
6.171622e+00 1.080798e-08 0
6.171622e+00 1.041543e-08 0
6.171622e+00 1.002329e-08 0
6.171622e+00 9.663123e-09 0
6.171622e+00 9.357708e-09 0
6.171622e+00 9.106964e-09 0
6.171622e+00 8.893717e-09 0
6.171622e+00 8.702839e-09 0
6.171622e+00 8.536457e-09 0
6.171622e+00 8.412439e-09 0
6.171622e+00 8.348944e-09 0
6.171622e+00 8.349993e-09 0
6.171622e+00 8.404665e-09 0
6.171622e+00 8.499591e-09 0
6.171622e+00 8.631534e-09 0
6.171622e+00 8.807186e-09 0
6.171622e+00 9.031321e-09 0
6.171622e+00 9.296531e-09 0
6.171622e+00 9.585254e-09 0
6.171622e+00 9.882411e-09 0
6.171622e+00 1.018728e-08 0
6.171622e+00 1.051156e-08 0
6.171622e+00 1.086198e-08 0
6.171622e+00 1.122417e-08 0
6.171622e+00 1.156540e-08 0
6.171622e+00 1.185422e-08 0
6.171622e+00 1.208146e-08 0
6.171622e+00 1.226515e-08 0
6.171622e+00 1.243274e-08 0
6.171622e+00 1.259486e-08 0
6.171622e+00 1.273325e-08 0
6.171622e+00 1.281413e-08 0
6.171622e+00 1.281610e-08 0
6.171622e+00 1.274786e-08 0
6.171622e+00 1.264192e-08 0
6.171622e+00 1.253084e-08 0
6.171622e+00 1.242580e-08 0
6.171622e+00 1.231474e-08 0
6.171622e+00 1.217941e-08 0
6.171622e+00 1.201601e-08 0
6.171622e+00 1.184304e-08 0
6.171622e+00 1.169110e-08 0
6.171622e+00 1.158245e-08 0
6.171622e+00 1.151752e-08 0
6.171622e+00 1.147769e-08 0
6.171622e+00 1.144183e-08 0
6.171622e+00 1.140470e-08 0
6.171622e+00 1.138044e-08 0
6.171622e+00 1.138922e-08 0
6.171622e+00 1.143730e-08 0
6.171622e+00 1.150807e-08 0
6.171622e+00 1.157014e-08 0
6.171622e+00 1.159698e-08 0
6.171622e+00 1.158105e-08 0
6.171622e+00 1.153209e-08 0
6.171622e+00 1.146222e-08 0
6.171622e+00 1.137261e-08 0
6.171622e+00 1.125258e-08 0
6.171622e+00 1.108753e-08 0
6.171622e+00 1.086917e-08 0
6.171622e+00 1.059986e-08 0
6.171622e+00 1.028944e-08 0
6.171622e+00 9.949598e-09 0
6.171622e+00 9.588636e-09 0
6.171622e+00 9.209636e-09 0
6.171622e+00 8.815571e-09 0
6.171622e+00 8.412883e-09 0
6.171622e+00 8.011035e-09 0
6.171622e+00 7.620366e-09 0
6.171622e+00 7.249576e-09 0
6.171622e+00 6.904682e-09 0
6.171622e+00 6.589972e-09 0
6.171622e+00 6.309059e-09 0
6.171622e+00 6.064905e-09 0
6.171622e+00 5.858677e-09 0
6.171622e+00 5.689421e-09 0
6.171622e+00 5.553918e-09 0
6.171622e+00 5.448296e-09 0
6.171622e+00 5.368014e-09 0
6.171622e+00 5.308895e-09 0
6.171622e+00 5.265974e-09 0
6.171622e+00 5.234179e-09 0
6.171622e+00 5.208045e-09 0
6.171622e+00 5.182633e-09 0
6.171622e+00 5.153115e-09 0
6.171622e+00 5.114181e-09 0
6.171622e+00 5.060623e-09 0
6.171622e+00 4.984167e-09 0
6.171622e+00 4.872020e-09 0
6.171622e+00 4.705943e-09 0
6.171622e+00 4.455666e-09 0
6.171622e+00 4.075530e-09 0
6.171622e+00 3.529600e-09 0
6.171622e+00 2.701332e-09 0
6.171622e+00 2.190201e-09 0
7.832786e+00 1.101777e-08 0
7.832786e+00 1.533936e-08 0
7.832786e+00 1.065494e-08 0
7.832786e+00 -9.463920e-09 0
7.832786e+00 -2.129955e-08 0
7.832786e+00 -1.278107e-08 0
7.832786e+00 8.449653e-09 0
7.832786e+00 2.862843e-08 0
7.832786e+00 3.868079e-08 0
7.832786e+00 3.747107e-08 0
7.832786e+00 2.953138e-08 0
7.832786e+00 2.056496e-08 0
7.832786e+00 1.438340e-08 0
7.832786e+00 1.252143e-08 0
7.832786e+00 1.444175e-08 0
7.832786e+00 1.792215e-08 0
7.832786e+00 2.044437e-08 0
7.832786e+00 2.075696e-08 0
7.832786e+00 1.951602e-08 0
7.832786e+00 1.844578e-08 0
7.832786e+00 1.869961e-08 0
7.832786e+00 1.984376e-08 0
7.832786e+00 2.033004e-08 0
7.832786e+00 1.896424e-08 0
7.832786e+00 1.603253e-08 0
7.832786e+00 1.308741e-08 0
7.832786e+00 1.163821e-08 0
7.832786e+00 1.195279e-08 0
7.832786e+00 1.298303e-08 0
7.832786e+00 1.333399e-08 0
7.832786e+00 1.236343e-08 0
7.832786e+00 1.054612e-08 0
7.832786e+00 8.945593e-09 0
7.832786e+00 8.360097e-09 0
7.832786e+00 8.822417e-09 0
7.832786e+00 9.718439e-09 0
7.832786e+00 1.031522e-08 0
7.832786e+00 1.025581e-08 0
7.832786e+00 9.703565e-09 0
7.832786e+00 9.132504e-09 0
7.832786e+00 8.975669e-09 0
7.832786e+00 9.372287e-09 0
7.832786e+00 1.013916e-08 0
7.832786e+00 1.093637e-08 0
7.832786e+00 1.149374e-08 0
7.832786e+00 1.175346e-08 0
7.832786e+00 1.185723e-08 0
7.832786e+00 1.201150e-08 0
7.832786e+00 1.233662e-08 0
7.832786e+00 1.280052e-08 0
7.832786e+00 1.326581e-08 0
7.832786e+00 1.359734e-08 0
7.832786e+00 1.374538e-08 0
7.832786e+00 1.375280e-08 0
7.832786e+00 1.369888e-08 0
7.832786e+00 1.363364e-08 0
7.832786e+00 1.355090e-08 0
7.832786e+00 1.340896e-08 0
7.832786e+00 1.317212e-08 0
7.832786e+00 1.283814e-08 0
7.832786e+00 1.243599e-08 0
7.832786e+00 1.200228e-08 0
7.832786e+00 1.155833e-08 0
7.832786e+00 1.110455e-08 0
7.832786e+00 1.063321e-08 0
7.832786e+00 1.014673e-08 0
7.832786e+00 9.665513e-09 0
7.832786e+00 9.218755e-09 0
7.832786e+00 8.826254e-09 0
7.832786e+00 8.487913e-09 0
7.832786e+00 8.190961e-09 0
7.832786e+00 7.928729e-09 0
7.832786e+00 7.713642e-09 0
7.832786e+00 7.571799e-09 0