<?xml version="1.0"?>
<VTKFile type="StructuredGrid">
<StructuredGrid WholeExtent="0 158 0 30 0 0 ">
<Piece Extent="0 158 0 30 0 0 ">
<Points>
<DataArray type="Float64" format="ascii" NumberOfComponents="3">
0.000000e+00 0.000000e+00 0.000000e+00
3.164557e-02 0.000000e+00 0.000000e+00
6.329114e-02 0.000000e+00 0.000000e+00
9.493671e-02 0.000000e+00 0.000000e+00
1.265823e-01 0.000000e+00 0.000000e+00
1.582278e-01 0.000000e+00 0.000000e+00
1.898734e-01 0.000000e+00 0.000000e+00
2.215190e-01 0.000000e+00 0.000000e+00
2.531646e-01 0.000000e+00 0.000000e+00
2.848101e-01 0.000000e+00 0.000000e+00
3.164557e-01 0.000000e+00 0.000000e+00
3.481013e-01 0.000000e+00 0.000000e+00
3.797468e-01 0.000000e+00 0.000000e+00
4.113924e-01 0.000000e+00 0.000000e+00
4.430380e-01 0.000000e+00 0.000000e+00
4.746835e-01 0.000000e+00 0.000000e+00
5.063291e-01 0.000000e+00 0.000000e+00
5.379747e-01 0.000000e+00 0.000000e+00
5.696203e-01 0.000000e+00 0.000000e+00
6.012658e-01 0.000000e+00 0.000000e+00
6.329114e-01 0.000000e+00 0.000000e+00
6.645570e-01 0.000000e+00 0.000000e+00
6.962025e-01 0.000000e+00 0.000000e+00
7.278481e-01 0.000000e+00 0.000000e+00
7.594937e-01 0.000000e+00 0.000000e+00
7.911392e-01 0.000000e+00 0.000000e+00
8.227848e-01 0.000000e+00 0.000000e+00
8.544304e-01 0.000000e+00 0.000000e+00
8.860759e-01 0.000000e+00 0.000000e+00
9.177215e-01 0.000000e+00 0.000000e+00
9.493671e-01 0.000000e+00 0.000000e+00
9.810127e-01 0.000000e+00 0.000000e+00
1.012658e+00 0.000000e+00 0.000000e+00
1.044304e+00 0.000000e+00 0.000000e+00
1.075949e+00 0.000000e+00 0.000000e+00
1.107595e+00 0.000000e+00 0.000000e+00
1.139241e+00 0.000000e+00 0.000000e+00
1.170886e+00 0.000000e+00 0.000000e+00
1.202532e+00 0.000000e+00 0.000000e+00
1.234177e+00 0.000000e+00 0.000000e+00
1.265823e+00 0.000000e+00 0.000000e+00
1.297468e+00 0.000000e+00 0.000000e+00
1.329114e+00 0.000000e+00 0.000000e+00
1.360759e+00 0.000000e+00 0.000000e+00
1.392405e+00 0.000000e+00 0.000000e+00
1.424051e+00 0.000000e+00 0.000000e+00
1.455696e+00 0.000000e+00 0.000000e+00
1.487342e+00 0.000000e+00 0.000000e+00
1.518987e+00 0.000000e+00 0.000000e+00
1.550633e+00 0.000000e+00 0.000000e+00
1.582278e+00 0.000000e+00 0.000000e+00
1.613924e+00 0.000000e+00 0.000000e+00
1.645570e+00 0.000000e+00 0.000000e+00
1.677215e+00 0.000000e+00 0.000000e+00
1.708861e+00 0.000000e+00 0.000000e+00
1.740506e+00 0.000000e+00 0.000000e+00
1.772152e+00 0.000000e+00 0.000000e+00
1.803797e+00 0.000000e+00 0.000000e+00
1.835443e+00 0.000000e+00 0.000000e+00
1.867089e+00 0.000000e+00 0.000000e+00
1.898734e+00 0.000000e+00 0.000000e+00
1.930380e+00 0.000000e+00 0.000000e+00
1.962025e+00 0.000000e+00 0.000000e+00
1.993671e+00 0.000000e+00 0.000000e+00
2.025316e+00 0.000000e+00 0.000000e+00
2.056962e+00 0.000000e+00 0.000000e+00
2.088608e+00 0.000000e+00 0.000000e+00
2.120253e+00 0.000000e+00 0.000000e+00
2.151899e+00 0.000000e+00 0.000000e+00
2.183544e+00 0.000000e+00 0.000000e+00
2.215190e+00 0.000000e+00 0.000000e+00
2.246835e+00 0.000000e+00 0.000000e+00
2.278481e+00 0.000000e+00 0.000000e+00
2.310127e+00 0.000000e+00 0.000000e+00
2.341772e+00 0.000000e+00 0.000000e+00
2.373418e+00 0.000000e+00 0.000000e+00
2.405063e+00 0.000000e+00 0.000000e+00
2.436709e+00 0.000000e+00 0.000000e+00
2.468354e+00 0.000000e+00 0.000000e+00
2.500000e+00 0.000000e+00 0.000000e+00
2.531646e+00 0.000000e+00 0.000000e+00
2.563291e+00 0.000000e+00 0.000000e+00
2.594937e+00 0.000000e+00 0.000000e+00
2.626582e+00 0.000000e+00 0.000000e+00
2.658228e+00 0.000000e+00 0.000000e+00
2.689873e+00 0.000000e+00 0.000000e+00
2.721519e+00 0.000000e+00 0.000000e+00
2.753165e+00 0.000000e+00 0.000000e+00
2.784810e+00 0.000000e+00 0.000000e+00
2.816456e+00 0.000000e+00 0.000000e+00
2.848101e+00 0.000000e+00 0.000000e+00
2.879747e+00 0.000000e+00 0.000000e+00
2.911392e+00 0.000000e+00 0.000000e+00
2.943038e+00 0.000000e+00 0.000000e+00
2.974684e+00 0.000000e+00 0.000000e+00
3.006329e+00 0.000000e+00 0.000000e+00
3.037975e+00 0.000000e+00 0.000000e+00
3.069620e+00 0.000000e+00 0.000000e+00
3.101266e+00 0.000000e+00 0.000000e+00
3.132911e+00 0.000000e+00 0.000000e+00
3.164557e+00 0.000000e+00 0.000000e+00
3.196203e+00 0.000000e+00 0.000000e+00
3.227848e+00 0.000000e+00 0.000000e+00
3.259494e+00 0.000000e+00 0.000000e+00
3.291139e+00 0.000000e+00 0.000000e+00
3.322785e+00 0.000000e+00 0.000000e+00
3.354430e+00 0.000000e+00 0.000000e+00
3.386076e+00 0.000000e+00 0.000000e+00
3.417722e+00 0.000000e+00 0.000000e+00
3.449367e+00 0.000000e+00 0.000000e+00
3.481013e+00 0.000000e+00 0.000000e+00
3.512658e+00 0.000000e+00 0.000000e+00
3.544304e+00 0.000000e+00 0.000000e+00
3.575949e+00 0.000000e+00 0.000000e+00
3.607595e+00 0.000000e+00 0.000000e+00
3.639241e+00 0.000000e+00 0.000000e+00
3.670886e+00 0.000000e+00 0.000000e+00
3.702532e+00 0.000000e+00 0.000000e+00
3.734177e+00 0.000000e+00 0.000000e+00
3.765823e+00 0.000000e+00 0.000000e+00
3.797468e+00 0.000000e+00 0.000000e+00
3.829114e+00 0.000000e+00 0.000000e+00
3.860759e+00 0.000000e+00 0.000000e+00
3.892405e+00 0.000000e+00 0.000000e+00
3.924051e+00 0.000000e+00 0.000000e+00
3.955696e+00 0.000000e+00 0.000000e+00
3.987342e+00 0.000000e+00 0.000000e+00
4.018987e+00 0.000000e+00 0.000000e+00
4.050633e+00 0.000000e+00 0.000000e+00
4.082278e+00 0.000000e+00 0.000000e+00
4.113924e+00 0.000000e+00 0.000000e+00
4.145570e+00 0.000000e+00 0.000000e+00
4.177215e+00 0.000000e+00 0.000000e+00
4.208861e+00 0.000000e+00 0.000000e+00
4.240506e+00 0.000000e+00 0.000000e+00
4.272152e+00 0.000000e+00 0.000000e+00
4.303797e+00 0.000000e+00 0.000000e+00
4.335443e+00 0.000000e+00 0.000000e+00
4.367089e+00 0.000000e+00 0.000000e+00
4.398734e+00 0.000000e+00 0.000000e+00
4.430380e+00 0.000000e+00 0.000000e+00
4.462025e+00 0.000000e+00 0.000000e+00
4.493671e+00 0.000000e+00 0.000000e+00
4.525316e+00 0.000000e+00 0.000000e+00
4.556962e+00 0.000000e+00 0.000000e+00
4.588608e+00 0.000000e+00 0.000000e+00
4.620253e+00 0.000000e+00 0.000000e+00
4.651899e+00 0.000000e+00 0.000000e+00
4.683544e+00 0.000000e+00 0.000000e+00
4.715190e+00 0.000000e+00 0.000000e+00
4.746835e+00 0.000000e+00 0.000000e+00
4.778481e+00 0.000000e+00 0.000000e+00
4.810127e+00 0.000000e+00 0.000000e+00
4.841772e+00 0.000000e+00 0.000000e+00
4.873418e+00 0.000000e+00 0.000000e+00
4.905063e+00 0.000000e+00 0.000000e+00
4.936709e+00 0.000000e+00 0.000000e+00
4.968354e+00 0.000000e+00 0.000000e+00
5.000000e+00 0.000000e+00 0.000000e+00
0.000000e+00 3.333333e-02 0.000000e+00
3.164557e-02 3.333333e-02 0.000000e+00
6.329114e-02 3.333333e-02 0.000000e+00
9.493671e-02 3.333333e-02 0.000000e+00
1.265823e-01 3.333333e-02 0.000000e+00
1.582278e-01 3.333333e-02 0.000000e+00
1.898734e-01 3.333333e-02 0.000000e+00
2.215190e-01 3.333333e-02 0.000000e+00
2.531646e-01 3.333333e-02 0.000000e+00
2.848101e-01 3.333333e-02 0.000000e+00
3.164557e-01 3.333333e-02 0.000000e+00
3.481013e-01 3.333333e-02 0.000000e+00
3.797468e-01 3.333333e-02 0.000000e+00
4.113924e-01 3.333333e-02 0.000000e+00
4.430380e-01 3.333333e-02 0.000000e+00
4.746835e-01 3.333333e-02 0.000000e+00
5.063291e-01 3.333333e-02 0.000000e+00
5.379747e-01 3.333333e-02 0.000000e+00
5.696203e-01 3.333333e-02 0.000000e+00
6.012658e-01 3.333333e-02 0.000000e+00
6.329114e-01 3.333333e-02 0.000000e+00
6.645570e-01 3.333333e-02 0.000000e+00
6.962025e-01 3.333333e-02 0.000000e+00
7.278481e-01 3.333333e-02 0.000000e+00
7.594937e-01 3.333333e-02 0.000000e+00
7.911392e-01 3.333333e-02 0.000000e+00
8.227848e-01 3.333333e-02 0.000000e+00
8.544304e-01 3.333333e-02 0.000000e+00
8.860759e-01 3.333333e-02 0.000000e+00
9.177215e-01 3.333333e-02 0.000000e+00
9.493671e-01 3.333333e-02 0.000000e+00
9.810127e-01 3.333333e-02 0.000000e+00
1.012658e+00 3.333333e-02 0.000000e+00
1.044304e+00 3.333333e-02 0.000000e+00
1.075949e+00 3.333333e-02 0.000000e+00
1.107595e+00 3.333333e-02 0.000000e+00
1.139241e+00 3.333333e-02 0.000000e+00
1.170886e+00 3.333333e-02 0.000000e+00
1.202532e+00 3.333333e-02 0.000000e+00
1.234177e+00 3.333333e-02 0.000000e+00
1.265823e+00 3.333333e-02 0.000000e+00
1.297468e+00 3.333333e-02 0.000000e+00
1.329114e+00 3.333333e-02 0.000000e+00
1.360759e+00 3.333333e-02 0.000000e+00
1.392405e+00 3.333333e-02 0.000000e+00
1.424051e+00 3.333333e-02 0.000000e+00
1.455696e+00 3.333333e-02 0.000000e+00
1.487342e+00 3.333333e-02 0.000000e+00
1.518987e+00 3.333333e-02 0.000000e+00
1.550633e+00 3.333333e-02 0.000000e+00
1.582278e+00 3.333333e-02 0.000000e+00
1.613924e+00 3.333333e-02 0.000000e+00
1.645570e+00 3.333333e-02 0.000000e+00
1.677215e+00 3.333333e-02 0.000000e+00
1.708861e+00 3.333333e-02 0.000000e+00
1.740506e+00 3.333333e-02 0.000000e+00
1.772152e+00 3.333333e-02 0.000000e+00
1.803797e+00 3.333333e-02 0.000000e+00
1.835443e+00 3.333333e-02 0.000000e+00
1.867089e+00 3.333333e-02 0.000000e+00
1.898734e+00 3.333333e-02 0.000000e+00
1.930380e+00 3.333333e-02 0.000000e+00
1.962025e+00 3.333333e-02 0.000000e+00
1.993671e+00 3.333333e-02 0.000000e+00
2.025316e+00 3.333333e-02 0.000000e+00
2.056962e+00 3.333333e-02 0.000000e+00
2.088608e+00 3.333333e-02 0.000000e+00
2.120253e+00 3.333333e-02 0.000000e+00
2.151899e+00 3.333333e-02 0.000000e+00
2.183544e+00 3.333333e-02 0.000000e+00
2.215190e+00 3.333333e-02 0.000000e+00
2.246835e+00 3.333333e-02 0.000000e+00
2.278481e+00 3.333333e-02 0.000000e+00
2.310127e+00 3.333333e-02 0.000000e+00
2.341772e+00 3.333333e-02 0.000000e+00
2.373418e+00 3.333333e-02 0.000000e+00
2.405063e+00 3.333333e-02 0.000000e+00
2.436709e+00 3.333333e-02 0.000000e+00
2.468354e+00 3.333333e-02 0.000000e+00
2.500000e+00 3.333333e-02 0.000000e+00
2.531646e+00 3.333333e-02 0.000000e+00
2.563291e+00 3.333333e-02 0.000000e+00
2.594937e+00 3.333333e-02 0.000000e+00
2.626582e+00 3.333333e-02 0.000000e+00
2.658228e+00 3.333333e-02 0.000000e+00
2.689873e+00 3.333333e-02 0.000000e+00
2.721519e+00 3.333333e-02 0.000000e+00
2.753165e+00 3.333333e-02 0.000000e+00
2.784810e+00 3.333333e-02 0.000000e+00
2.816456e+00 3.333333e-02 0.000000e+00
2.848101e+00 3.333333e-02 0.000000e+00
2.879747e+00 3.333333e-02 0.000000e+00
[...]
<PointData>
<DataArray Name="Velocity" type="Float64" format="ascii" NumberOfComponents="3">
0.000000e+00 0.000000e+00 0
0.000000e+00 0.000000e+00 0
0.000000e+00 0.000000e+00 0
0.000000e+00 0.000000e+00 0
0.000000e+00 0.000000e+00 0
0.000000e+00 0.000000e+00 0
0.000000e+00 0.000000e+00 0
0.000000e+00 0.000000e+00 0
0.000000e+00 0.000000e+00 0
0.000000e+00 0.000000e+00 0
0.000000e+00 0.000000e+00 0
0.000000e+00 0.000000e+00 0
0.000000e+00 0.000000e+00 0
0.000000e+00 0.000000e+00 0
0.000000e+00 0.000000e+00 0
0.000000e+00 0.000000e+00 0
0.000000e+00 0.000000e+00 0
0.000000e+00 0.000000e+00 0
0.000000e+00 0.000000e+00 0
3.366398e-17 0.000000e+00 0
0.000000e+00 0.000000e+00 0
0.000000e+00 0.000000e+00 0
0.000000e+00 0.000000e+00 0
3.366399e-17 0.000000e+00 0
0.000000e+00 0.000000e+00 0
0.000000e+00 0.000000e+00 0
0.000000e+00 0.000000e+00 0
3.366388e-17 0.000000e+00 0
0.000000e+00 0.000000e+00 0
0.000000e+00 0.000000e+00 0
0.000000e+00 0.000000e+00 0
3.366385e-17 0.000000e+00 0
0.000000e+00 0.000000e+00 0
0.000000e+00 0.000000e+00 0
0.000000e+00 0.000000e+00 0
0.000000e+00 0.000000e+00 0
0.000000e+00 0.000000e+00 0
0.000000e+00 0.000000e+00 0
-4.369487e-17 0.000000e+00 0
0.000000e+00 0.000000e+00 0
0.000000e+00 0.000000e+00 0
0.000000e+00 0.000000e+00 0
0.000000e+00 0.000000e+00 0
0.000000e+00 0.000000e+00 0
0.000000e+00 0.000000e+00 0
0.000000e+00 0.000000e+00 0
-4.369516e-17 0.000000e+00 0
0.000000e+00 0.000000e+00 0
0.000000e+00 0.000000e+00 0
0.000000e+00 0.000000e+00 0
0.000000e+00 0.000000e+00 0
0.000000e+00 0.000000e+00 0
0.000000e+00 0.000000e+00 0
0.000000e+00 0.000000e+00 0
-4.369543e-17 0.000000e+00 0
0.000000e+00 0.000000e+00 0
0.000000e+00 0.000000e+00 0
0.000000e+00 0.000000e+00 0
0.000000e+00 0.000000e+00 0
0.000000e+00 0.000000e+00 0
0.000000e+00 0.000000e+00 0
0.000000e+00 0.000000e+00 0
-4.369569e-17 0.000000e+00 0
0.000000e+00 0.000000e+00 0
0.000000e+00 0.000000e+00 0
0.000000e+00 0.000000e+00 0
0.000000e+00 0.000000e+00 0
0.000000e+00 0.000000e+00 0
0.000000e+00 0.000000e+00 0
0.000000e+00 0.000000e+00 0
0.000000e+00 0.000000e+00 0
0.000000e+00 0.000000e+00 0
0.000000e+00 0.000000e+00 0
0.000000e+00 0.000000e+00 0
0.000000e+00 0.000000e+00 0
0.000000e+00 0.000000e+00 0
0.000000e+00 0.000000e+00 0
0.000000e+00 0.000000e+00 0
0.000000e+00 0.000000e+00 0
0.000000e+00 0.000000e+00 0
0.000000e+00 0.000000e+00 0
0.000000e+00 0.000000e+00 0
0.000000e+00 0.000000e+00 0
0.000000e+00 0.000000e+00 0
0.000000e+00 0.000000e+00 0
0.000000e+00 0.000000e+00 0
0.000000e+00 0.000000e+00 0
0.000000e+00 0.000000e+00 0
0.000000e+00 0.000000e+00 0
0.000000e+00 0.000000e+00 0
0.000000e+00 0.000000e+00 0
0.000000e+00 0.000000e+00 0
0.000000e+00 0.000000e+00 0
0.000000e+00 0.000000e+00 0
0.000000e+00 0.000000e+00 0
0.000000e+00 0.000000e+00 0
0.000000e+00 0.000000e+00 0
0.000000e+00 0.000000e+00 0
0.000000e+00 0.000000e+00 0
0.000000e+00 0.000000e+00 0
0.000000e+00 0.000000e+00 0
0.000000e+00 0.000000e+00 0
0.000000e+00 0.000000e+00 0
0.000000e+00 0.000000e+00 0
0.000000e+00 0.000000e+00 0
0.000000e+00 0.000000e+00 0
0.000000e+00 0.000000e+00 0
0.000000e+00 0.000000e+00 0
0.000000e+00 0.000000e+00 0
0.000000e+00 0.000000e+00 0
0.000000e+00 0.000000e+00 0
0.000000e+00 0.000000e+00 0
0.000000e+00 0.000000e+00 0
0.000000e+00 0.000000e+00 0
0.000000e+00 0.000000e+00 0
0.000000e+00 0.000000e+00 0
0.000000e+00 0.000000e+00 0
0.000000e+00 0.000000e+00 0
0.000000e+00 0.000000e+00 0
0.000000e+00 0.000000e+00 0
0.000000e+00 0.000000e+00 0
0.000000e+00 0.000000e+00 0
0.000000e+00 0.000000e+00 0
0.000000e+00 0.000000e+00 0
0.000000e+00 0.000000e+00 0
0.000000e+00 0.000000e+00 0
0.000000e+00 0.000000e+00 0
0.000000e+00 0.000000e+00 0
0.000000e+00 0.000000e+00 0
0.000000e+00 0.000000e+00 0
0.000000e+00 0.000000e+00 0
0.000000e+00 0.000000e+00 0
0.000000e+00 0.000000e+00 0
0.000000e+00 0.000000e+00 0
0.000000e+00 0.000000e+00 0
0.000000e+00 0.000000e+00 0
0.000000e+00 0.000000e+00 0
0.000000e+00 0.000000e+00 0
0.000000e+00 0.000000e+00 0
0.000000e+00 0.000000e+00 0
0.000000e+00 0.000000e+00 0
0.000000e+00 0.000000e+00 0
0.000000e+00 0.000000e+00 0
0.000000e+00 0.000000e+00 0
0.000000e+00 0.000000e+00 0
0.000000e+00 0.000000e+00 0
0.000000e+00 0.000000e+00 0
0.000000e+00 0.000000e+00 0
0.000000e+00 0.000000e+00 0
0.000000e+00 0.000000e+00 0
0.000000e+00 0.000000e+00 0
0.000000e+00 0.000000e+00 0
0.000000e+00 0.000000e+00 0
0.000000e+00 0.000000e+00 0
0.000000e+00 0.000000e+00 0
0.000000e+00 0.000000e+00 0
0.000000e+00 0.000000e+00 0
0.000000e+00 0.000000e+00 0
0.000000e+00 0.000000e+00 0
2.428967e+00 -2.088540e-08 0
2.428967e+00 -4.548650e-08 0
2.428967e+00 -8.032359e-08 0
2.428967e+00 -8.584666e-08 0
2.428967e+00 -6.711979e-08 0
2.428967e+00 -3.870497e-08 0
2.428967e+00 -1.629464e-08 0
2.428967e+00 -6.479237e-09 0
2.428967e+00 -7.322664e-09 0
2.428967e+00 -1.411584e-08 0
2.428967e+00 -2.060329e-08 0
2.428967e+00 -2.127836e-08 0
2.428967e+00 -1.330008e-08 0
2.428967e+00 1.815598e-09 0
2.428967e+00 1.795518e-08 0
2.428967e+00 2.756515e-08 0
2.428967e+00 2.617762e-08 0
2.428967e+00 1.575198e-08 0
2.428967e+00 3.762868e-09 0
2.428967e+00 -1.809874e-09 0
2.428967e+00 2.189719e-09 0
2.428967e+00 1.223566e-08 0
2.428967e+00 2.143430e-08 0
2.428967e+00 2.408222e-08 0
2.428967e+00 1.900145e-08 0
2.428967e+00 1.007815e-08 0
2.428967e+00 2.934237e-09 0
2.428967e+00 1.388058e-09 0
2.428967e+00 5.627261e-09 0
2.428967e+00 1.248370e-08 0
2.428967e+00 1.762518e-08 0
2.428967e+00 1.822071e-08 0
2.428967e+00 1.447657e-08 0
2.428967e+00 9.229796e-09 0
2.428967e+00 5.900779e-09 0
2.428967e+00 6.217025e-09 0
2.428967e+00 9.293230e-09 0
2.428967e+00 1.260392e-08 0
2.428967e+00 1.396006e-08 0
2.428967e+00 1.293211e-08 0
2.428967e+00 1.075359e-08 0
2.428967e+00 9.052976e-09 0
2.428967e+00 8.625819e-09 0
2.428967e+00 9.173925e-09 0
2.428967e+00 9.934594e-09 0
2.428967e+00 1.041565e-08 0
2.428967e+00 1.059730e-08 0
2.428967e+00 1.063522e-08 0
2.428967e+00 1.055185e-08 0
2.428967e+00 1.025465e-08 0
2.428967e+00 9.762732e-09 0
2.428967e+00 9.298518e-09 0
2.428967e+00 9.111204e-09 0
2.428967e+00 9.238516e-09 0
2.428967e+00 9.481396e-09 0
2.428967e+00 9.616050e-09 0
2.428967e+00 9.603867e-09 0
2.428967e+00 9.578586e-09 0
2.428967e+00 9.651108e-09 0
2.428967e+00 9.767036e-09 0
2.428967e+00 9.775524e-09 0
2.428967e+00 9.623027e-09 0
2.428967e+00 9.446674e-09 0
2.428967e+00 9.455891e-09 0
2.428967e+00 9.722413e-09 0
2.428967e+00 1.009571e-08 0
2.428967e+00 1.032934e-08 0
2.428967e+00 1.029195e-08 0
2.428967e+00 1.006333e-08 0
2.428967e+00 9.840689e-09 0
2.428967e+00 9.761542e-09 0
2.428967e+00 9.809603e-09 0
2.428967e+00 9.867980e-09 0
2.428967e+00 9.842632e-09 0
2.428967e+00 9.735006e-09 0
2.428967e+00 9.615967e-09 0
2.428967e+00 9.550609e-09 0
2.428967e+00 9.551756e-09 0
2.428967e+00 9.590916e-09 0
2.428967e+00 9.637135e-09 0
2.428967e+00 9.680689e-09 0
2.428967e+00 9.727139e-09 0
2.428967e+00 9.780192e-09 0
2.428967e+00 9.834900e-09 0
2.428967e+00 9.883723e-09 0
2.428967e+00 9.923267e-09 0
2.428967e+00 9.952291e-09 0
2.428967e+00 9.964859e-09 0
2.428967e+00 9.950040e-09 0
2.428967e+00 9.896483e-09 0
2.428967e+00 9.799722e-09 0
2.428967e+00 9.665868e-09 0
2.428967e+00 9.503505e-09 0
2.428967e+00 9.320089e-09 0
2.428967e+00 9.122430e-09 0
2.428967e+00 8.918500e-09 0
2.428967e+00 8.716576e-09 0
2.428967e+00 8.516828e-09 0
2.428967e+00 8.308799e-09 0
2.428967e+00 8.081973e-09 0
2.428967e+00 7.840515e-09 0
2.428967e+00 7.607955e-09 0
2.428967e+00 7.413653e-09 0
2.428967e+00 7.269668e-09 0
2.428967e+00 7.163520e-09 0
2.428967e+00 7.074278e-09 0
2.428967e+00 6.992636e-09 0
2.428967e+00 6.924269e-09 0
2.428967e+00 6.874660e-09 0
2.428967e+00 6.833954e-09 0
2.428967e+00 6.785713e-09 0
2.428967e+00 6.731781e-09 0
2.428967e+00 6.699581e-09 0
2.428967e+00 6.718627e-09 0
2.428967e+00 6.791764e-09 0
2.428967e+00 6.892050e-09 0
2.428967e+00 6.985993e-09 0
2.428967e+00 7.056966e-09 0
2.428967e+00 7.107139e-09 0
2.428967e+00 7.144181e-09 0
2.428967e+00 7.173795e-09 0
2.428967e+00 7.202992e-09 0
2.428967e+00 7.241031e-09 0
2.428967e+00 7.291132e-09 0
2.428967e+00 7.342750e-09 0
2.428967e+00 7.376298e-09 0
2.428967e+00 7.379285e-09 0
2.428967e+00 7.356511e-09 0
2.428967e+00 7.322692e-09 0
2.428967e+00 7.288706e-09 0
2.428967e+00 7.254548e-09 0
2.428967e+00 7.213281e-09 0
2.428967e+00 7.161198e-09 0
2.428967e+00 7.102517e-09 0
2.428967e+00 7.045925e-09 0
2.428967e+00 6.997748e-09 0
2.428967e+00 6.956650e-09 0
2.428967e+00 6.916380e-09 0
2.428967e+00 6.870930e-09 0
2.428967e+00 6.817968e-09 0
2.428967e+00 6.761004e-09 0
2.428967e+00 6.706797e-09 0
2.428967e+00 6.659603e-09 0
2.428967e+00 6.618613e-09 0
2.428967e+00 6.580225e-09 0
2.428967e+00 6.541396e-09 0
2.428967e+00 6.500128e-09 0
2.428967e+00 6.458529e-09 0
2.428967e+00 6.418393e-09 0
2.428967e+00 6.380181e-09 0
2.428967e+00 6.343455e-09 0
2.428967e+00 6.304131e-09 0
2.428967e+00 6.256784e-09 0
2.428967e+00 6.189271e-09 0
2.428967e+00 6.075920e-09 0
2.428967e+00 5.847029e-09 0
2.428967e+00 5.306183e-09 0
2.428967e+00 3.177984e-09 0
2.428967e+00 1.434167e-09 0
4.644404e+00 -1.985412e-08 0
4.644404e+00 -4.102166e-08 0
4.644404e+00 -6.849990e-08 0
4.644404e+00 -6.859478e-08 0
4.644404e+00 -5.106927e-08 0
4.644404e+00 -3.030786e-08 0
4.644404e+00 -1.688428e-08 0
4.644404e+00 -1.388695e-08 0
4.644404e+00 -1.836270e-08 0
4.644404e+00 -2.492829e-08 0
4.644404e+00 -2.818572e-08 0
4.644404e+00 -2.420682e-08 0
4.644404e+00 -1.188041e-08 0
4.644404e+00 5.266160e-09 0
4.644404e+00 1.990747e-08 0
4.644404e+00 2.533037e-08 0
4.644404e+00 2.000836e-08 0
4.644404e+00 8.733707e-09 0
4.644404e+00 -5.070419e-10 0
4.644404e+00 -1.593537e-09 0
4.644404e+00 5.685317e-09 0
4.644404e+00 1.602093e-08 0
4.644404e+00 2.261818e-08 0
4.644404e+00 2.170453e-08 0
4.644404e+00 1.460670e-08 0
4.644404e+00 6.114797e-09 0
4.644404e+00 1.192225e-09 0
4.644404e+00 2.145778e-09 0
4.644404e+00 7.654828e-09 0
4.644404e+00 1.397540e-08 0
4.644404e+00 1.737281e-08 0
4.644404e+00 1.624014e-08 0
4.644404e+00 1.188669e-08 0
4.644404e+00 7.482838e-09 0
4.644404e+00 5.827336e-09 0
4.644404e+00 7.554788e-09 0
4.644404e+00 1.098142e-08 0
4.644404e+00 1.358858e-08 0
4.644404e+00 1.390531e-08 0
4.644404e+00 1.232361e-08 0
4.644404e+00 1.039263e-08 0
4.644404e+00 9.423444e-09 0
4.644404e+00 9.634986e-09 0
4.644404e+00 1.037603e-08 0
4.644404e+00 1.094696e-08 0
4.644404e+00 1.115394e-08 0
4.644404e+00 1.119904e-08 0
4.644404e+00 1.123836e-08 0
4.644404e+00 1.117089e-08 0
4.644404e+00 1.083141e-08 0
4.644404e+00 1.027598e-08 0
4.644404e+00 9.793834e-09 0
4.644404e+00 9.638642e-09 0
4.644404e+00 9.793129e-09 0
4.644404e+00 1.002027e-08 0
4.644404e+00 1.012115e-08 0
4.644404e+00 1.010765e-08 0
4.644404e+00 1.012423e-08 0
4.644404e+00 1.024120e-08 0
4.644404e+00 1.036760e-08 0
4.644404e+00 1.037434e-08 0
4.644404e+00 1.027273e-08 0
4.644404e+00 1.023632e-08 0
4.644404e+00 1.043457e-08 0
4.644404e+00 1.085347e-08 0
4.644404e+00 1.129076e-08 0
4.644404e+00 1.152992e-08 0
4.644404e+00 1.152024e-08 0
4.644404e+00 1.139682e-08 0
4.644404e+00 1.133982e-08 0
4.644404e+00 1.141979e-08 0
4.644404e+00 1.156561e-08 0
4.644404e+00 1.165822e-08 0
4.644404e+00 1.164216e-08 0
4.644404e+00 1.155567e-08 0
4.644404e+00 1.147492e-08 0
4.644404e+00 1.144418e-08 0
4.644404e+00 1.145503e-08 0
4.644404e+00 1.147513e-08 0
4.644404e+00 1.148537e-08 0
4.644404e+00 1.148971e-08 0
4.644404e+00 1.149894e-08 0
4.644404e+00 1.151493e-08 0
4.644404e+00 1.152978e-08 0
4.644404e+00 1.153441e-08 0
4.644404e+00 1.152414e-08 0
4.644404e+00 1.149535e-08 0
4.644404e+00 1.144075e-08 0
4.644404e+00 1.134981e-08 0
4.644404e+00 1.121469e-08 0
4.644404e+00 1.103616e-08 0
4.644404e+00 1.081979e-08 0
4.644404e+00 1.057115e-08 0
4.644404e+00 1.029546e-08 0
4.644404e+00 1.000088e-08 0
4.644404e+00 9.700001e-09 0
4.644404e+00 9.401673e-09 0
4.644404e+00 9.103189e-09 0
4.644404e+00 8.793821e-09 0
4.644404e+00 8.467635e-09 0
4.644404e+00 8.137552e-09 0
4.644404e+00 7.833577e-09 0
4.644404e+00 7.580624e-09 0
4.644404e+00 7.380232e-09 0
4.644404e+00 7.214815e-09 0
4.644404e+00 7.066961e-09 0
4.644404e+00 6.935134e-09 0
4.644404e+00 6.828069e-09 0
4.644404e+00 6.744027e-09 0
4.644404e+00 6.667631e-09 0
4.644404e+00 6.590556e-09 0
4.644404e+00 6.529005e-09 0
4.644404e+00 6.514285e-09 0
4.644404e+00 6.564291e-09 0
4.644404e+00 6.665775e-09 0
4.644404e+00 6.785806e-09 0
4.644404e+00 6.898062e-09 0
4.644404e+00 6.995559e-09 0
4.644404e+00 7.081722e-09 0
4.644404e+00 7.158876e-09 0
4.644404e+00 7.228996e-09 0
4.644404e+00 7.298473e-09 0
4.644404e+00 7.373928e-09 0
4.644404e+00 7.450699e-09 0
4.644404e+00 7.510553e-09 0
4.644404e+00 7.535468e-09 0
4.644404e+00 7.522680e-09 0
4.644404e+00 7.484221e-09 0
4.644404e+00 7.434621e-09 0
4.644404e+00 7.379364e-09 0
4.644404e+00 7.313381e-09 0
4.644404e+00 7.230704e-09 0
4.644404e+00 7.133016e-09 0
4.644404e+00 7.028918e-09 0
4.644404e+00 6.928148e-09 0
4.644404e+00 6.834369e-09 0
4.644404e+00 6.743963e-09 0
4.644404e+00 6.650476e-09 0
4.644404e+00 6.549897e-09 0
4.644404e+00 6.445348e-09 0
4.644404e+00 6.344916e-09 0
4.644404e+00 6.254893e-09 0
4.644404e+00 6.176760e-09 0
4.644404e+00 6.107805e-09 0
4.644404e+00 6.044370e-09 0
4.644404e+00 5.983683e-09 0
4.644404e+00 5.927565e-09 0
4.644404e+00 5.878109e-09 0
4.644404e+00 5.835794e-09 0
4.644404e+00 5.799458e-09 0
4.644404e+00 5.764505e-09 0
4.644404e+00 5.724347e-09 0
4.644404e+00 5.667727e-09 0
4.644404e+00 5.573880e-09 0
4.644404e+00 5.399879e-09 0
4.644404e+00 5.061044e-09 0
4.644404e+00 4.383779e-09 0
4.644404e+00 3.043011e-09 0
4.644404e+00 2.154830e-09 0
6.654911e+00 -1.628143e-08 0
6.654911e+00 -3.250353e-08 0
6.654911e+00 -5.059883e-08 0
6.654911e+00 -4.471677e-08 0
6.654911e+00 -2.786904e-08 0
6.654911e+00 -1.396672e-08 0
6.654911e+00 -9.545313e-09 0
6.654911e+00 -1.372472e-08 0
6.654911e+00 -2.187741e-08 0
6.654911e+00 -2.869701e-08 0
6.654911e+00 -2.966453e-08 0
6.654911e+00 -2.202820e-08 0
6.654911e+00 -6.859347e-09 0
6.654911e+00 1.032384e-08 0
6.654911e+00 2.200397e-08 0
6.654911e+00 2.315067e-08 0
6.654911e+00 1.481344e-08 0
6.654911e+00 3.748924e-09 0
6.654911e+00 -2.069400e-09 0
6.654911e+00 1.055368e-09 0
6.654911e+00 1.043319e-08 0
6.654911e+00 1.946854e-08 0
6.654911e+00 2.234816e-08 0
6.654911e+00 1.770716e-08 0
6.654911e+00 8.934948e-09 0
6.654911e+00 1.356753e-09 0
6.654911e+00 -1.092290e-09 0
6.654911e+00 2.185016e-09 0
6.654911e+00 8.552718e-09 0
6.654911e+00 1.400847e-08 0
6.654911e+00 1.552046e-08 0
6.654911e+00 1.275259e-08 0
6.654911e+00 8.094523e-09 0
6.654911e+00 4.904402e-09 0
6.654911e+00 5.213732e-09 0
6.654911e+00 8.471429e-09 0
6.654911e+00 1.220695e-08 0
6.654911e+00 1.402617e-08 0
6.654911e+00 1.329568e-08 0
6.654911e+00 1.125123e-08 0
6.654911e+00 9.683645e-09 0
6.654911e+00 9.483553e-09 0
6.654911e+00 1.023996e-08 0
6.654911e+00 1.098487e-08 0
6.654911e+00 1.116427e-08 0
6.654911e+00 1.092858e-08 0
6.654911e+00 1.068468e-08 0
6.654911e+00 1.055822e-08 0
6.654911e+00 1.033319e-08 0
6.654911e+00 9.813759e-09 0
6.654911e+00 9.118714e-09 0
6.654911e+00 8.581089e-09 0
6.654911e+00 8.410479e-09 0
6.654911e+00 8.514406e-09 0
6.654911e+00 8.649608e-09 0
6.654911e+00 8.694710e-09 0
6.654911e+00 8.733973e-09 0
6.654911e+00 8.891161e-09 0
6.654911e+00 9.140078e-09 0
6.654911e+00 9.322271e-09 0
6.654911e+00 9.344453e-09 0
6.654911e+00 9.318217e-09 0
6.654911e+00 9.472875e-09 0
6.654911e+00 9.925604e-09 0
6.654911e+00 1.054855e-08 0
6.654911e+00 1.107028e-08 0
6.654911e+00 1.130882e-08 0
6.654911e+00 1.131068e-08 0
6.654911e+00 1.127756e-08 0
6.654911e+00 1.137197e-08 0
6.654911e+00 1.159081e-08 0
6.654911e+00 1.180421e-08 0
6.654911e+00 1.189248e-08 0
6.654911e+00 1.184210e-08 0
6.654911e+00 1.172893e-08 0
6.654911e+00 1.163343e-08 0
6.654911e+00 1.157947e-08 0
6.654911e+00 1.154032e-08 0
6.654911e+00 1.148456e-08 0
6.654911e+00 1.140809e-08 0
6.654911e+00 1.132761e-08 0
6.654911e+00 1.125747e-08 0
6.654911e+00 1.119752e-08 0
6.654911e+00 1.113854e-08 0
6.654911e+00 1.107405e-08 0
6.654911e+00 1.100249e-08 0
6.654911e+00 1.091997e-08 0
6.654911e+00 1.081672e-08 0
6.654911e+00 1.068136e-08 0
6.654911e+00 1.050873e-08 0
6.654911e+00 1.030095e-08 0
6.654911e+00 1.006125e-08 0
6.654911e+00 9.790428e-09 0
6.654911e+00 9.490755e-09 0
6.654911e+00 9.171072e-09 0
6.654911e+00 8.843712e-09 0
6.654911e+00 8.514068e-09 0
6.654911e+00 8.175209e-09 0
6.654911e+00 7.814567e-09 0
6.654911e+00 7.432733e-09 0
6.654911e+00 7.053927e-09 0
6.654911e+00 6.710701e-09 0
6.654911e+00 6.420375e-09 0
6.654911e+00 6.175915e-09 0
6.654911e+00 5.957808e-09 0
6.654911e+00 5.756710e-09 0
6.654911e+00 5.579565e-09 0
6.654911e+00 5.431240e-09 0
6.654911e+00 5.302209e-09 0
6.654911e+00 5.179107e-09 0
6.654911e+00 5.067025e-09 0
6.654911e+00 4.995982e-09 0
6.654911e+00 4.998027e-09 0
6.654911e+00 5.077954e-09 0
6.654911e+00 5.209920e-09 0
6.654911e+00 5.361757e-09 0
6.654911e+00 5.517388e-09 0
6.654911e+00 5.675268e-09 0
6.654911e+00 5.834439e-09 0
6.654911e+00 5.990858e-09 0
6.654911e+00 6.144357e-09 0
6.654911e+00 6.299912e-09 0
6.654911e+00 6.455871e-09 0
6.654911e+00 6.594960e-09 0
6.654911e+00 6.693726e-09 0
6.654911e+00 6.740510e-09 0
6.654911e+00 6.742582e-09 0
6.654912e+00 6.716695e-09 0
6.654912e+00 6.673332e-09 0
6.654912e+00 6.609827e-09 0
6.654912e+00 6.518713e-09 0
6.654912e+00 6.399314e-09 0
6.654912e+00 6.260128e-09 0
6.654912e+00 6.114085e-09 0
6.654912e+00 5.970638e-09 0
6.654912e+00 5.830371e-09 0
6.654912e+00 5.688279e-09 0
6.654912e+00 5.540232e-09 0
6.654912e+00 5.388520e-09 0
6.654912e+00 5.241925e-09 0
6.654912e+00 5.109535e-09 0
6.654912e+00 4.995990e-09 0
6.654912e+00 4.899871e-09 0
6.654912e+00 4.816720e-09 0
6.654912e+00 4.743421e-09 0
6.654912e+00 4.680990e-09 0
6.654912e+00 4.632315e-09 0
6.654912e+00 4.597786e-09 0
6.654912e+00 4.575819e-09 0
6.654912e+00 4.562352e-09 0
6.654912e+00 4.550741e-09 0
6.654912e+00 4.533002e-09 0
6.654912e+00 4.496151e-09 0
6.654912e+00 4.417734e-09 0
6.654912e+00 4.263217e-09 0
6.654912e+00 3.980079e-09 0
6.654912e+00 3.520424e-09 0
6.654912e+00 2.735288e-09 0
6.654912e+00 2.228118e-09 0
8.468896e+00 -9.416684e-09 0
8.468896e+00 -1.822554e-08 0
8.468896e+00 -2.439953e-08 0
8.468896e+00 -1.319768e-08 0
8.468896e+00 1.207859e-09 0
8.468896e+00 7.075296e-09 0
8.468896e+00 2.618872e-09 0
8.468896e+00 -8.033795e-09 0
8.468896e+00 -1.920031e-08 0
8.468896e+00 -2.579064e-08 0
8.468896e+00 -2.421558e-08 0
8.468896e+00 -1.358127e-08 0
8.468896e+00 2.800720e-09 0
8.468896e+00 1.792888e-08 0
8.468896e+00 2.461017e-08 0
8.468896e+00 2.027617e-08 0
8.468896e+00 9.266767e-09 0
8.468896e+00 -4.123199e-11 0
8.468896e+00 -1.094254e-09 0
8.468896e+00 6.441076e-09 0
8.468896e+00 1.693652e-08 0
8.468896e+00 2.315672e-08 0
8.468896e+00 2.121983e-08 0
8.468896e+00 1.269730e-08 0
8.468896e+00 2.826903e-09 0
8.468896e+00 -3.159806e-09 0
8.468896e+00 -2.886164e-09 0
8.468896e+00 2.404906e-09 0
8.468896e+00 8.959860e-09 0
8.468896e+00 1.277897e-08 0
8.468896e+00 1.193101e-08 0
8.468896e+00 7.644101e-09 0
8.468896e+00 3.352183e-09 0
8.468896e+00 2.231205e-09 0
8.468896e+00 5.061424e-09 0
8.468896e+00 9.865689e-09 0
8.468896e+00 1.354197e-08 0
8.468896e+00 1.422570e-08 0
8.468896e+00 1.245314e-08 0
8.468896e+00 1.031989e-08 0
8.468896e+00 9.570448e-09 0
8.468896e+00 1.035207e-08 0
8.468896e+00 1.154413e-08 0
8.468896e+00 1.204051e-08 0
8.468896e+00 1.165776e-08 0
8.468896e+00 1.097319e-08 0
8.468896e+00 1.052428e-08 0
8.468896e+00 1.029211e-08 0
8.468896e+00 9.902131e-09 0
8.468896e+00 9.161705e-09 0
8.468896e+00 8.291512e-09 0
8.468896e+00 7.661513e-09 0
8.468896e+00 7.405505e-09 0
8.468896e+00 7.350697e-09 0
8.468896e+00 7.282529e-09 0
8.468896e+00 7.193771e-09 0
8.468896e+00 7.238052e-09 0
8.468896e+00 7.483785e-09 0
8.468896e+00 7.787906e-09 0
8.468896e+00 7.945656e-09 0
8.468896e+00 7.940280e-09 0
8.468896e+00 7.999379e-09 0
8.468896e+00 8.380511e-09 0
8.468896e+00 9.105090e-09 0
8.468896e+00 9.915337e-09 0
8.468896e+00 1.049574e-08 0
8.468896e+00 1.073653e-08 0
8.468896e+00 1.079279e-08 0
8.468896e+00 1.090845e-08 0
8.468896e+00 1.119406e-08 0
8.468896e+00 1.156050e-08 0
8.468896e+00 1.183646e-08 0