<?xml version="1.0"?>
<VTKFile type="StructuredGrid">
<StructuredGrid WholeExtent="0 158 0 30 0 0 ">
<Piece Extent="0 158 0 30 0 0 ">
<Points>
<DataArray type="Float64" format="ascii" NumberOfComponents="3">
0.000000e+00 0.000000e+00 0.000000e+00
3.164557e-02 0.000000e+00 0.000000e+00
6.329114e-02 0.000000e+00 0.000000e+00
9.493671e-02 0.000000e+00 0.000000e+00
1.265823e-01 0.000000e+00 0.000000e+00
1.582278e-01 0.000000e+00 0.000000e+00
1.898734e-01 0.000000e+00 0.000000e+00
2.215190e-01 0.000000e+00 0.000000e+00
2.531646e-01 0.000000e+00 0.000000e+00
2.848101e-01 0.000000e+00 0.000000e+00
3.164557e-01 0.000000e+00 0.000000e+00
3.481013e-01 0.000000e+00 0.000000e+00
3.797468e-01 0.000000e+00 0.000000e+00
4.113924e-01 0.000000e+00 0.000000e+00
4.430380e-01 0.000000e+00 0.000000e+00
4.746835e-01 0.000000e+00 0.000000e+00
5.063291e-01 0.000000e+00 0.000000e+00
5.379747e-01 0.000000e+00 0.000000e+00
5.696203e-01 0.000000e+00 0.000000e+00
6.012658e-01 0.000000e+00 0.000000e+00
6.329114e-01 0.000000e+00 0.000000e+00
6.645570e-01 0.000000e+00 0.000000e+00
6.962025e-01 0.000000e+00 0.000000e+00
7.278481e-01 0.000000e+00 0.000000e+00
7.594937e-01 0.000000e+00 0.000000e+00
7.911392e-01 0.000000e+00 0.000000e+00
8.227848e-01 0.000000e+00 0.000000e+00
8.544304e-01 0.000000e+00 0.000000e+00
8.860759e-01 0.000000e+00 0.000000e+00
9.177215e-01 0.000000e+00 0.000000e+00
9.493671e-01 0.000000e+00 0.000000e+00
9.810127e-01 0.000000e+00 0.000000e+00
1.012658e+00 0.000000e+00 0.000000e+00
1.044304e+00 0.000000e+00 0.000000e+00
1.075949e+00 0.000000e+00 0.000000e+00
1.107595e+00 0.000000e+00 0.000000e+00
1.139241e+00 0.000000e+00 0.000000e+00
1.170886e+00 0.000000e+00 0.000000e+00
1.202532e+00 0.000000e+00 0.000000e+00
1.234177e+00 0.000000e+00 0.000000e+00
1.265823e+00 0.000000e+00 0.000000e+00
1.297468e+00 0.000000e+00 0.000000e+00
1.329114e+00 0.000000e+00 0.000000e+00
1.360759e+00 0.000000e+00 0.000000e+00
1.392405e+00 0.000000e+00 0.000000e+00
1.424051e+00 0.000000e+00 0.000000e+00
1.455696e+00 0.000000e+00 0.000000e+00
1.487342e+00 0.000000e+00 0.000000e+00
1.518987e+00 0.000000e+00 0.000000e+00
1.550633e+00 0.000000e+00 0.000000e+00
1.582278e+00 0.000000e+00 0.000000e+00
1.613924e+00 0.000000e+00 0.000000e+00
1.645570e+00 0.000000e+00 0.000000e+00
1.677215e+00 0.000000e+00 0.000000e+00
1.708861e+00 0.000000e+00 0.000000e+00
1.740506e+00 0.000000e+00 0.000000e+00
1.772152e+00 0.000000e+00 0.000000e+00
1.803797e+00 0.000000e+00 0.000000e+00
1.835443e+00 0.000000e+00 0.000000e+00
1.867089e+00 0.000000e+00 0.000000e+00
1.898734e+00 0.000000e+00 0.000000e+00
1.930380e+00 0.000000e+00 0.000000e+00
1.962025e+00 0.000000e+00 0.000000e+00
1.993671e+00 0.000000e+00 0.000000e+00
2.025316e+00 0.000000e+00 0.000000e+00
2.056962e+00 0.000000e+00 0.000000e+00
2.088608e+00 0.000000e+00 0.000000e+00
2.120253e+00 0.000000e+00 0.000000e+00
2.151899e+00 0.000000e+00 0.000000e+00
2.183544e+00 0.000000e+00 0.000000e+00
2.215190e+00 0.000000e+00 0.000000e+00
2.246835e+00 0.000000e+00 0.000000e+00
2.278481e+00 0.000000e+00 0.000000e+00
2.310127e+00 0.000000e+00 0.000000e+00
2.341772e+00 0.000000e+00 0.000000e+00
2.373418e+00 0.000000e+00 0.000000e+00
2.405063e+00 0.000000e+00 0.000000e+00
2.436709e+00 0.000000e+00 0.000000e+00
2.468354e+00 0.000000e+00 0.000000e+00
2.500000e+00 0.000000e+00 0.000000e+00
2.531646e+00 0.000000e+00 0.000000e+00
2.563291e+00 0.000000e+00 0.000000e+00
2.594937e+00 0.000000e+00 0.000000e+00
2.626582e+00 0.000000e+00 0.000000e+00
2.658228e+00 0.000000e+00 0.000000e+00
2.689873e+00 0.000000e+00 0.000000e+00
2.721519e+00 0.000000e+00 0.000000e+00
2.753165e+00 0.000000e+00 0.000000e+00
2.784810e+00 0.000000e+00 0.000000e+00
2.816456e+00 0.000000e+00 0.000000e+00
2.848101e+00 0.000000e+00 0.000000e+00
2.879747e+00 0.000000e+00 0.000000e+00
2.911392e+00 0.000000e+00 0.000000e+00
2.943038e+00 0.000000e+00 0.000000e+00
2.974684e+00 0.000000e+00 0.000000e+00
3.006329e+00 0.000000e+00 0.000000e+00
3.037975e+00 0.000000e+00 0.000000e+00
3.069620e+00 0.000000e+00 0.000000e+00
3.101266e+00 0.000000e+00 0.000000e+00
3.132911e+00 0.000000e+00 0.000000e+00
3.164557e+00 0.000000e+00 0.000000e+00
3.196203e+00 0.000000e+00 0.000000e+00
3.227848e+00 0.000000e+00 0.000000e+00
3.259494e+00 0.000000e+00 0.000000e+00
3.291139e+00 0.000000e+00 0.000000e+00
3.322785e+00 0.000000e+00 0.000000e+00
3.354430e+00 0.000000e+00 0.000000e+00
3.386076e+00 0.000000e+00 0.000000e+00
3.417722e+00 0.000000e+00 0.000000e+00
3.449367e+00 0.000000e+00 0.000000e+00
3.481013e+00 0.000000e+00 0.000000e+00
3.512658e+00 0.000000e+00 0.000000e+00
3.544304e+00 0.000000e+00 0.000000e+00
3.575949e+00 0.000000e+00 0.000000e+00
3.607595e+00 0.000000e+00 0.000000e+00
3.639241e+00 0.000000e+00 0.000000e+00
3.670886e+00 0.000000e+00 0.000000e+00
3.702532e+00 0.000000e+00 0.000000e+00
3.734177e+00 0.000000e+00 0.000000e+00
3.765823e+00 0.000000e+00 0.000000e+00
3.797468e+00 0.000000e+00 0.000000e+00
3.829114e+00 0.000000e+00 0.000000e+00
3.860759e+00 0.000000e+00 0.000000e+00
3.892405e+00 0.000000e+00 0.000000e+00
3.924051e+00 0.000000e+00 0.000000e+00
3.955696e+00 0.000000e+00 0.000000e+00
3.987342e+00 0.000000e+00 0.000000e+00
4.018987e+00 0.000000e+00 0.000000e+00
4.050633e+00 0.000000e+00 0.000000e+00
4.082278e+00 0.000000e+00 0.000000e+00
4.113924e+00 0.000000e+00 0.000000e+00
4.145570e+00 0.000000e+00 0.000000e+00
4.177215e+00 0.000000e+00 0.000000e+00
4.208861e+00 0.000000e+00 0.000000e+00
4.240506e+00 0.000000e+00 0.000000e+00
4.272152e+00 0.000000e+00 0.000000e+00
4.303797e+00 0.000000e+00 0.000000e+00
4.335443e+00 0.000000e+00 0.000000e+00
4.367089e+00 0.000000e+00 0.000000e+00
4.398734e+00 0.000000e+00 0.000000e+00
4.430380e+00 0.000000e+00 0.000000e+00
4.462025e+00 0.000000e+00 0.000000e+00
4.493671e+00 0.000000e+00 0.000000e+00
4.525316e+00 0.000000e+00 0.000000e+00
4.556962e+00 0.000000e+00 0.000000e+00
4.588608e+00 0.000000e+00 0.000000e+00
4.620253e+00 0.000000e+00 0.000000e+00
4.651899e+00 0.000000e+00 0.000000e+00
4.683544e+00 0.000000e+00 0.000000e+00
4.715190e+00 0.000000e+00 0.000000e+00
4.746835e+00 0.000000e+00 0.000000e+00
4.778481e+00 0.000000e+00 0.000000e+00
4.810127e+00 0.000000e+00 0.000000e+00
4.841772e+00 0.000000e+00 0.000000e+00
4.873418e+00 0.000000e+00 0.000000e+00
4.905063e+00 0.000000e+00 0.000000e+00
4.936709e+00 0.000000e+00 0.000000e+00
4.968354e+00 0.000000e+00 0.000000e+00
5.000000e+00 0.000000e+00 0.000000e+00
0.000000e+00 3.333333e-02 0.000000e+00
3.164557e-02 3.333333e-02 0.000000e+00
6.329114e-02 3.333333e-02 0.000000e+00
9.493671e-02 3.333333e-02 0.000000e+00
1.265823e-01 3.333333e-02 0.000000e+00
1.582278e-01 3.333333e-02 0.000000e+00
1.898734e-01 3.333333e-02 0.000000e+00
2.215190e-01 3.333333e-02 0.000000e+00
2.531646e-01 3.333333e-02 0.000000e+00
2.848101e-01 3.333333e-02 0.000000e+00
3.164557e-01 3.333333e-02 0.000000e+00
3.481013e-01 3.333333e-02 0.000000e+00
3.797468e-01 3.333333e-02 0.000000e+00
4.113924e-01 3.333333e-02 0.000000e+00
4.430380e-01 3.333333e-02 0.000000e+00
4.746835e-01 3.333333e-02 0.000000e+00
5.063291e-01 3.333333e-02 0.000000e+00
5.379747e-01 3.333333e-02 0.000000e+00
5.696203e-01 3.333333e-02 0.000000e+00
6.012658e-01 3.333333e-02 0.000000e+00
6.329114e-01 3.333333e-02 0.000000e+00
6.645570e-01 3.333333e-02 0.000000e+00
6.962025e-01 3.333333e-02 0.000000e+00
7.278481e-01 3.333333e-02 0.000000e+00
7.594937e-01 3.333333e-02 0.000000e+00
7.911392e-01 3.333333e-02 0.000000e+00
8.227848e-01 3.333333e-02 0.000000e+00
8.544304e-01 3.333333e-02 0.000000e+00
8.860759e-01 3.333333e-02 0.000000e+00
9.177215e-01 3.333333e-02 0.000000e+00
9.493671e-01 3.333333e-02 0.000000e+00
9.810127e-01 3.333333e-02 0.000000e+00
1.012658e+00 3.333333e-02 0.000000e+00
1.044304e+00 3.333333e-02 0.000000e+00
1.075949e+00 3.333333e-02 0.000000e+00
1.107595e+00 3.333333e-02 0.000000e+00
1.139241e+00 3.333333e-02 0.000000e+00
1.170886e+00 3.333333e-02 0.000000e+00
1.202532e+00 3.333333e-02 0.000000e+00
1.234177e+00 3.333333e-02 0.000000e+00
1.265823e+00 3.333333e-02 0.000000e+00
1.297468e+00 3.333333e-02 0.000000e+00
1.329114e+00 3.333333e-02 0.000000e+00
1.360759e+00 3.333333e-02 0.000000e+00
1.392405e+00 3.333333e-02 0.000000e+00
1.424051e+00 3.333333e-02 0.000000e+00
1.455696e+00 3.333333e-02 0.000000e+00
1.487342e+00 3.333333e-02 0.000000e+00
1.518987e+00 3.333333e-02 0.000000e+00
1.550633e+00 3.333333e-02 0.000000e+00
1.582278e+00 3.333333e-02 0.000000e+00
1.613924e+00 3.333333e-02 0.000000e+00
1.645570e+00 3.333333e-02 0.000000e+00
1.677215e+00 3.333333e-02 0.000000e+00
1.708861e+00 3.333333e-02 0.000000e+00
1.740506e+00 3.333333e-02 0.000000e+00
1.772152e+00 3.333333e-02 0.000000e+00
1.803797e+00 3.333333e-02 0.000000e+00
1.835443e+00 3.333333e-02 0.000000e+00
1.867089e+00 3.333333e-02 0.000000e+00
1.898734e+00 3.333333e-02 0.000000e+00
1.930380e+00 3.333333e-02 0.000000e+00
1.962025e+00 3.333333e-02 0.000000e+00
1.993671e+00 3.333333e-02 0.000000e+00
2.025316e+00 3.333333e-02 0.000000e+00
2.056962e+00 3.333333e-02 0.000000e+00
2.088608e+00 3.333333e-02 0.000000e+00
2.120253e+00 3.333333e-02 0.000000e+00
2.151899e+00 3.333333e-02 0.000000e+00
2.183544e+00 3.333333e-02 0.000000e+00
2.215190e+00 3.333333e-02 0.000000e+00
2.246835e+00 3.333333e-02 0.000000e+00
2.278481e+00 3.333333e-02 0.000000e+00
2.310127e+00 3.333333e-02 0.000000e+00
2.341772e+00 3.333333e-02 0.000000e+00
2.373418e+00 3.333333e-02 0.000000e+00
2.405063e+00 3.333333e-02 0.000000e+00
2.436709e+00 3.333333e-02 0.000000e+00
2.468354e+00 3.333333e-02 0.000000e+00
2.500000e+00 3.333333e-02 0.000000e+00
2.531646e+00 3.333333e-02 0.000000e+00
2.563291e+00 3.333333e-02 0.000000e+00
2.594937e+00 3.333333e-02 0.000000e+00
2.626582e+00 3.333333e-02 0.000000e+00
2.658228e+00 3.333333e-02 0.000000e+00
2.689873e+00 3.333333e-02 0.000000e+00
2.721519e+00 3.333333e-02 0.000000e+00
2.753165e+00 3.333333e-02 0.000000e+00
2.784810e+00 3.333333e-02 0.000000e+00
2.816456e+00 3.333333e-02 0.000000e+00
2.848101e+00 3.333333e-02 0.000000e+00
2.879747e+00 3.333333e-02 0.000000e+00
[...]
<PointData>
<DataArray Name="Velocity" type="Float64" format="ascii" NumberOfComponents="3">
0.000000e+00 0.000000e+00 0
0.000000e+00 0.000000e+00 0
0.000000e+00 0.000000e+00 0
0.000000e+00 0.000000e+00 0
0.000000e+00 0.000000e+00 0
0.000000e+00 0.000000e+00 0
0.000000e+00 0.000000e+00 0
0.000000e+00 0.000000e+00 0
0.000000e+00 0.000000e+00 0
0.000000e+00 0.000000e+00 0
0.000000e+00 0.000000e+00 0
0.000000e+00 0.000000e+00 0
0.000000e+00 0.000000e+00 0
0.000000e+00 0.000000e+00 0
0.000000e+00 0.000000e+00 0
0.000000e+00 0.000000e+00 0
0.000000e+00 0.000000e+00 0
0.000000e+00 0.000000e+00 0
0.000000e+00 0.000000e+00 0
3.576373e-17 0.000000e+00 0
0.000000e+00 0.000000e+00 0
0.000000e+00 0.000000e+00 0
0.000000e+00 0.000000e+00 0
3.576367e-17 0.000000e+00 0
0.000000e+00 0.000000e+00 0
0.000000e+00 0.000000e+00 0
0.000000e+00 0.000000e+00 0
3.576363e-17 0.000000e+00 0
0.000000e+00 0.000000e+00 0
0.000000e+00 0.000000e+00 0
0.000000e+00 0.000000e+00 0
3.576359e-17 0.000000e+00 0
0.000000e+00 0.000000e+00 0
0.000000e+00 0.000000e+00 0
0.000000e+00 0.000000e+00 0
0.000000e+00 0.000000e+00 0
0.000000e+00 0.000000e+00 0
0.000000e+00 0.000000e+00 0
-3.949529e-17 0.000000e+00 0
0.000000e+00 0.000000e+00 0
0.000000e+00 0.000000e+00 0
0.000000e+00 0.000000e+00 0
0.000000e+00 0.000000e+00 0
0.000000e+00 0.000000e+00 0
0.000000e+00 0.000000e+00 0
0.000000e+00 0.000000e+00 0
-3.949552e-17 0.000000e+00 0
0.000000e+00 0.000000e+00 0
0.000000e+00 0.000000e+00 0
0.000000e+00 0.000000e+00 0
0.000000e+00 0.000000e+00 0
0.000000e+00 0.000000e+00 0
0.000000e+00 0.000000e+00 0
0.000000e+00 0.000000e+00 0
-3.949576e-17 0.000000e+00 0
0.000000e+00 0.000000e+00 0
0.000000e+00 0.000000e+00 0
0.000000e+00 0.000000e+00 0
0.000000e+00 0.000000e+00 0
0.000000e+00 0.000000e+00 0
0.000000e+00 0.000000e+00 0
0.000000e+00 0.000000e+00 0
-3.949598e-17 0.000000e+00 0
0.000000e+00 0.000000e+00 0
0.000000e+00 0.000000e+00 0
0.000000e+00 0.000000e+00 0
0.000000e+00 0.000000e+00 0
0.000000e+00 0.000000e+00 0
0.000000e+00 0.000000e+00 0
0.000000e+00 0.000000e+00 0
0.000000e+00 0.000000e+00 0
0.000000e+00 0.000000e+00 0
0.000000e+00 0.000000e+00 0
0.000000e+00 0.000000e+00 0
0.000000e+00 0.000000e+00 0
0.000000e+00 0.000000e+00 0
0.000000e+00 0.000000e+00 0
0.000000e+00 0.000000e+00 0
0.000000e+00 0.000000e+00 0
0.000000e+00 0.000000e+00 0
0.000000e+00 0.000000e+00 0
0.000000e+00 0.000000e+00 0
0.000000e+00 0.000000e+00 0
0.000000e+00 0.000000e+00 0
0.000000e+00 0.000000e+00 0
0.000000e+00 0.000000e+00 0
0.000000e+00 0.000000e+00 0
0.000000e+00 0.000000e+00 0
0.000000e+00 0.000000e+00 0
0.000000e+00 0.000000e+00 0
0.000000e+00 0.000000e+00 0
0.000000e+00 0.000000e+00 0
0.000000e+00 0.000000e+00 0
0.000000e+00 0.000000e+00 0
0.000000e+00 0.000000e+00 0
0.000000e+00 0.000000e+00 0
0.000000e+00 0.000000e+00 0
0.000000e+00 0.000000e+00 0
0.000000e+00 0.000000e+00 0
0.000000e+00 0.000000e+00 0
0.000000e+00 0.000000e+00 0
0.000000e+00 0.000000e+00 0
0.000000e+00 0.000000e+00 0
0.000000e+00 0.000000e+00 0
0.000000e+00 0.000000e+00 0
0.000000e+00 0.000000e+00 0
0.000000e+00 0.000000e+00 0
0.000000e+00 0.000000e+00 0
0.000000e+00 0.000000e+00 0
0.000000e+00 0.000000e+00 0
0.000000e+00 0.000000e+00 0
0.000000e+00 0.000000e+00 0
0.000000e+00 0.000000e+00 0
0.000000e+00 0.000000e+00 0
0.000000e+00 0.000000e+00 0
0.000000e+00 0.000000e+00 0
0.000000e+00 0.000000e+00 0
0.000000e+00 0.000000e+00 0
0.000000e+00 0.000000e+00 0
0.000000e+00 0.000000e+00 0
0.000000e+00 0.000000e+00 0
0.000000e+00 0.000000e+00 0
0.000000e+00 0.000000e+00 0
0.000000e+00 0.000000e+00 0
0.000000e+00 0.000000e+00 0
0.000000e+00 0.000000e+00 0
0.000000e+00 0.000000e+00 0
0.000000e+00 0.000000e+00 0
0.000000e+00 0.000000e+00 0
0.000000e+00 0.000000e+00 0
0.000000e+00 0.000000e+00 0
0.000000e+00 0.000000e+00 0
0.000000e+00 0.000000e+00 0
0.000000e+00 0.000000e+00 0
0.000000e+00 0.000000e+00 0
0.000000e+00 0.000000e+00 0
0.000000e+00 0.000000e+00 0
0.000000e+00 0.000000e+00 0
0.000000e+00 0.000000e+00 0
0.000000e+00 0.000000e+00 0
0.000000e+00 0.000000e+00 0
0.000000e+00 0.000000e+00 0
0.000000e+00 0.000000e+00 0
0.000000e+00 0.000000e+00 0
0.000000e+00 0.000000e+00 0
0.000000e+00 0.000000e+00 0
0.000000e+00 0.000000e+00 0
0.000000e+00 0.000000e+00 0
0.000000e+00 0.000000e+00 0
0.000000e+00 0.000000e+00 0
0.000000e+00 0.000000e+00 0
0.000000e+00 0.000000e+00 0
0.000000e+00 0.000000e+00 0
0.000000e+00 0.000000e+00 0
0.000000e+00 0.000000e+00 0
0.000000e+00 0.000000e+00 0
0.000000e+00 0.000000e+00 0
0.000000e+00 0.000000e+00 0
0.000000e+00 0.000000e+00 0
2.805298e+00 2.953526e-09 0
2.805298e+00 1.202867e-08 0
2.805298e+00 3.144663e-08 0
2.805298e+00 4.645190e-08 0
2.805298e+00 4.660490e-08 0
2.805298e+00 3.083060e-08 0
2.805298e+00 8.075024e-09 0
2.805298e+00 -9.040146e-09 0
2.805298e+00 -1.292949e-08 0
2.805298e+00 -5.108573e-09 0
2.805298e+00 6.383411e-09 0
2.805298e+00 1.288811e-08 0
2.805298e+00 1.085925e-08 0
2.805298e+00 3.446320e-09 0
2.805298e+00 -3.414519e-09 0
2.805298e+00 -5.596536e-09 0
2.805298e+00 -2.622623e-09 0
2.805298e+00 2.727759e-09 0
2.805298e+00 6.899837e-09 0
2.805298e+00 8.057154e-09 0
2.805298e+00 6.706109e-09 0
2.805298e+00 4.621090e-09 0
2.805298e+00 3.364892e-09 0
2.805298e+00 3.535840e-09 0
2.805298e+00 4.750050e-09 0
2.805298e+00 6.130506e-09 0
2.805298e+00 6.958313e-09 0
2.805298e+00 7.009288e-09 0
2.805298e+00 6.514572e-09 0
2.805298e+00 5.913341e-09 0
2.805298e+00 5.583322e-09 0
2.805298e+00 5.670642e-09 0
2.805298e+00 6.082303e-09 0
2.805298e+00 6.602770e-09 0
2.805298e+00 7.026312e-09 0
2.805298e+00 7.247725e-09 0
2.805298e+00 7.284121e-09 0
2.805298e+00 7.242739e-09 0
2.805298e+00 7.263863e-09 0
2.805298e+00 7.456237e-09 0
2.805298e+00 7.838923e-09 0
2.805298e+00 8.317516e-09 0
2.805298e+00 8.724269e-09 0
2.805298e+00 8.916120e-09 0
2.805298e+00 8.872142e-09 0
2.805298e+00 8.714751e-09 0
2.805298e+00 8.627787e-09 0
2.805298e+00 8.726208e-09 0
2.805298e+00 8.974879e-09 0
2.805298e+00 9.218096e-09 0
2.805298e+00 9.295534e-09 0
2.805298e+00 9.155008e-09 0
2.805298e+00 8.880690e-09 0
2.805298e+00 8.624660e-09 0
2.805298e+00 8.498686e-09 0
2.805298e+00 8.503487e-09 0
2.805298e+00 8.538531e-09 0
2.805298e+00 8.477912e-09 0
2.805298e+00 8.258668e-09 0
2.805298e+00 7.924446e-09 0
2.805298e+00 7.597130e-09 0
2.805298e+00 7.394786e-09 0
2.805298e+00 7.349342e-09 0
2.805298e+00 7.382045e-09 0
2.805298e+00 7.361020e-09 0
2.805298e+00 7.204361e-09 0
2.805298e+00 6.950863e-09 0
2.805298e+00 6.739166e-09 0
2.805298e+00 6.705429e-09 0
2.805298e+00 6.877699e-09 0
2.805298e+00 7.152933e-09 0
2.805298e+00 7.376726e-09 0
2.805298e+00 7.460493e-09 0
2.805298e+00 7.441545e-09 0
2.805298e+00 7.439589e-09 0
2.805298e+00 7.551809e-09 0
2.805298e+00 7.776506e-09 0
2.805298e+00 8.020077e-09 0
2.805298e+00 8.171962e-09 0
2.805298e+00 8.181400e-09 0
2.805298e+00 8.076891e-09 0
2.805298e+00 7.927859e-09 0
2.805298e+00 7.792571e-09 0
2.805298e+00 7.689036e-09 0
2.805298e+00 7.597539e-09 0
2.805298e+00 7.482388e-09 0
2.805298e+00 7.314501e-09 0
2.805298e+00 7.087075e-09 0
2.805298e+00 6.821050e-09 0
2.805298e+00 6.557080e-09 0
2.805298e+00 6.335830e-09 0
2.805298e+00 6.172943e-09 0
2.805298e+00 6.049098e-09 0
2.805298e+00 5.927336e-09 0
2.805298e+00 5.782747e-09 0
2.805298e+00 5.621268e-09 0
2.805298e+00 5.473114e-09 0
2.805298e+00 5.368292e-09 0
2.805298e+00 5.315861e-09 0
2.805298e+00 5.302526e-09 0
2.805298e+00 5.307107e-09 0
2.805298e+00 5.315203e-09 0
2.805298e+00 5.323277e-09 0
2.805298e+00 5.335009e-09 0
2.805298e+00 5.357728e-09 0
2.805298e+00 5.401072e-09 0
2.805298e+00 5.474106e-09 0
2.805298e+00 5.578895e-09 0
2.805298e+00 5.705637e-09 0
2.805298e+00 5.836373e-09 0
2.805298e+00 5.956096e-09 0
2.805298e+00 6.061621e-09 0
2.805298e+00 6.160329e-09 0
2.805298e+00 6.260303e-09 0
2.805298e+00 6.361636e-09 0
2.805298e+00 6.456465e-09 0
2.805298e+00 6.536114e-09 0
2.805298e+00 6.597095e-09 0
2.805298e+00 6.640404e-09 0
2.805298e+00 6.667113e-09 0
2.805298e+00 6.676005e-09 0
2.805298e+00 6.665486e-09 0
2.805298e+00 6.636733e-09 0
2.805298e+00 6.594055e-09 0
2.805298e+00 6.542297e-09 0
2.805298e+00 6.484114e-09 0
2.805298e+00 6.419920e-09 0
2.805298e+00 6.348967e-09 0
2.805298e+00 6.269545e-09 0
2.805298e+00 6.179510e-09 0
2.805298e+00 6.077155e-09 0
2.805298e+00 5.963016e-09 0
2.805298e+00 5.840676e-09 0
2.805298e+00 5.714289e-09 0
2.805298e+00 5.586171e-09 0
2.805298e+00 5.456390e-09 0
2.805298e+00 5.323766e-09 0
2.805298e+00 5.188304e-09 0
2.805298e+00 5.052663e-09 0
2.805298e+00 4.920836e-09 0
2.805298e+00 4.797269e-09 0
2.805298e+00 4.685598e-09 0
2.805298e+00 4.588340e-09 0
2.805298e+00 4.507222e-09 0
2.805298e+00 4.443109e-09 0
2.805298e+00 4.397019e-09 0
2.805298e+00 4.369049e-09 0
2.805298e+00 4.358478e-09 0
2.805298e+00 4.364057e-09 0
2.805298e+00 4.383390e-09 0
2.805298e+00 4.412876e-09 0
2.805298e+00 4.448356e-09 0
2.805297e+00 4.482875e-09 0
2.805297e+00 4.506056e-09 0
2.805297e+00 4.497386e-09 0
2.805297e+00 4.405434e-09 0
2.805297e+00 4.075518e-09 0
2.805297e+00 2.446599e-09 0
2.805297e+00 1.071730e-09 0
5.392942e+00 7.831692e-09 0
5.392942e+00 2.129300e-08 0
5.392942e+00 4.493118e-08 0
5.392942e+00 5.660880e-08 0
5.392942e+00 5.056345e-08 0
5.392942e+00 3.159112e-08 0
5.392942e+00 1.113510e-08 0
5.392942e+00 -4.884552e-10 0
5.392942e+00 1.575088e-10 0
5.392942e+00 8.668216e-09 0
5.392942e+00 1.704988e-08 0
5.392942e+00 1.925347e-08 0
5.392942e+00 1.470351e-08 0
5.392942e+00 7.501750e-09 0
5.392942e+00 2.490519e-09 0
5.392942e+00 1.953062e-09 0
5.392942e+00 4.987555e-09 0
5.392942e+00 8.829140e-09 0
5.392942e+00 1.096232e-08 0
5.392942e+00 1.056817e-08 0
5.392942e+00 8.473046e-09 0
5.392942e+00 6.155652e-09 0
5.392942e+00 4.758949e-09 0
5.392942e+00 4.616670e-09 0
5.392942e+00 5.312265e-09 0
5.392942e+00 6.118933e-09 0
5.392942e+00 6.450620e-09 0
5.392942e+00 6.103611e-09 0
5.392942e+00 5.282048e-09 0
5.392942e+00 4.430574e-09 0
5.392942e+00 3.957984e-09 0
5.392942e+00 4.043770e-09 0
5.392942e+00 4.590148e-09 0
5.392942e+00 5.313561e-09 0
5.392942e+00 5.937075e-09 0
5.392942e+00 6.334194e-09 0
5.392942e+00 6.552697e-09 0
5.392942e+00 6.741167e-09 0
5.392942e+00 7.047597e-09 0
5.392942e+00 7.546422e-09 0
5.392942e+00 8.211403e-09 0
5.392942e+00 8.929080e-09 0
5.392942e+00 9.546880e-09 0
5.392942e+00 9.946320e-09 0
5.392942e+00 1.011075e-08 0
5.392942e+00 1.014136e-08 0
5.392942e+00 1.019666e-08 0
5.392942e+00 1.038586e-08 0
5.392942e+00 1.069039e-08 0
5.392942e+00 1.097574e-08 0
5.392942e+00 1.108874e-08 0
5.392942e+00 1.096841e-08 0
5.392942e+00 1.068774e-08 0
5.392942e+00 1.039800e-08 0
5.392942e+00 1.022065e-08 0
5.392942e+00 1.016755e-08 0
5.392942e+00 1.014380e-08 0
5.392942e+00 1.002555e-08 0
5.392942e+00 9.753502e-09 0
5.392942e+00 9.376407e-09 0
5.392942e+00 9.016051e-09 0
5.392942e+00 8.778866e-09 0
5.392942e+00 8.677514e-09 0
5.392942e+00 8.622638e-09 0
5.392942e+00 8.494147e-09 0
5.392942e+00 8.239778e-09 0
5.392942e+00 7.924603e-09 0
5.392942e+00 7.687865e-09 0
5.392942e+00 7.636670e-09 0
5.392942e+00 7.761993e-09 0
5.392942e+00 7.947036e-09 0
5.392942e+00 8.060937e-09 0
5.392942e+00 8.059989e-09 0
5.392942e+00 8.012428e-09 0
5.392942e+00 8.030675e-09 0
5.392942e+00 8.174290e-09 0
5.392942e+00 8.403244e-09 0
5.392942e+00 8.613457e-09 0
5.392942e+00 8.716862e-09 0
5.392942e+00 8.694760e-09 0
5.392942e+00 8.590868e-09 0
5.392942e+00 8.465910e-09 0
5.392942e+00 8.353653e-09 0
5.392942e+00 8.247860e-09 0
5.392942e+00 8.118358e-09 0
5.392942e+00 7.934428e-09 0
5.392942e+00 7.681690e-09 0
5.392942e+00 7.368743e-09 0
5.392942e+00 7.025158e-09 0
5.392942e+00 6.690583e-09 0
5.392942e+00 6.393651e-09 0
5.392942e+00 6.136368e-09 0
5.392942e+00 5.897720e-09 0
5.392942e+00 5.653696e-09 0
5.392942e+00 5.399274e-09 0
5.392942e+00 5.154368e-09 0
5.392942e+00 4.949510e-09 0
5.392942e+00 4.804104e-09 0
5.392942e+00 4.716708e-09 0
5.392942e+00 4.672072e-09 0
5.392942e+00 4.654718e-09 0
5.392942e+00 4.656818e-09 0
5.392942e+00 4.677685e-09 0
5.392942e+00 4.720593e-09 0
5.392942e+00 4.791429e-09 0
5.392942e+00 4.897517e-09 0
5.392942e+00 5.042880e-09 0
5.392942e+00 5.222128e-09 0
5.392942e+00 5.420007e-09 0
5.392942e+00 5.619228e-09 0
5.392942e+00 5.810535e-09 0
5.392942e+00 5.995808e-09 0
5.392942e+00 6.181282e-09 0
5.392942e+00 6.367970e-09 0
5.392942e+00 6.548602e-09 0
5.392942e+00 6.713014e-09 0
5.392942e+00 6.855160e-09 0
5.392942e+00 6.974334e-09 0
5.392942e+00 7.071072e-09 0
5.392942e+00 7.143280e-09 0
5.392942e+00 7.186974e-09 0
5.392942e+00 7.200370e-09 0
5.392942e+00 7.185855e-09 0
5.392942e+00 7.147942e-09 0
5.392942e+00 7.089918e-09 0
5.392942e+00 7.012592e-09 0
5.392942e+00 6.915476e-09 0
5.392942e+00 6.797503e-09 0
5.392942e+00 6.657229e-09 0
5.392942e+00 6.493413e-09 0
5.392942e+00 6.306333e-09 0
5.392942e+00 6.099521e-09 0
5.392942e+00 5.878476e-09 0
5.392942e+00 5.647819e-09 0
5.392942e+00 5.409958e-09 0
5.392942e+00 5.165506e-09 0
5.392942e+00 4.915453e-09 0
5.392942e+00 4.663638e-09 0
5.392942e+00 4.415717e-09 0
5.392942e+00 4.177947e-09 0
5.392942e+00 3.956119e-09 0
5.392942e+00 3.754641e-09 0
5.392942e+00 3.576908e-09 0
5.392942e+00 3.425348e-09 0
5.392942e+00 3.302086e-09 0
5.392942e+00 3.208469e-09 0
5.392942e+00 3.144627e-09 0
5.392942e+00 3.109671e-09 0
5.392942e+00 3.101373e-09 0
5.392942e+00 3.115883e-09 0
5.392942e+00 3.148064e-09 0
5.392942e+00 3.190519e-09 0
5.392942e+00 3.232429e-09 0
5.392942e+00 3.256331e-09 0
5.392942e+00 3.232446e-09 0
5.392942e+00 3.101221e-09 0
5.392942e+00 2.737988e-09 0
5.392942e+00 2.035033e-09 0
5.392942e+00 1.592634e-09 0
7.767454e+00 1.447060e-08 0
7.767454e+00 2.961266e-08 0
7.767454e+00 5.277916e-08 0
7.767454e+00 5.858299e-08 0
7.767454e+00 4.664658e-08 0
7.767454e+00 2.640174e-08 0
7.767454e+00 1.047903e-08 0
7.767454e+00 6.219197e-09 0
7.767454e+00 1.222047e-08 0
7.767454e+00 2.115298e-08 0
7.767454e+00 2.552145e-08 0
7.767454e+00 2.254022e-08 0
7.767454e+00 1.501505e-08 0
7.767454e+00 8.244518e-09 0
7.767454e+00 5.843856e-09 0
7.767454e+00 7.892154e-09 0
7.767454e+00 1.181400e-08 0
7.767454e+00 1.463693e-08 0
7.767454e+00 1.488724e-08 0
7.767454e+00 1.297028e-08 0
7.767454e+00 1.026699e-08 0
7.767454e+00 8.027263e-09 0
7.767454e+00 6.770587e-09 0
7.767454e+00 6.317958e-09 0
7.767454e+00 6.207326e-09 0
7.767454e+00 6.036636e-09 0
7.767454e+00 5.585660e-09 0
7.767454e+00 4.837340e-09 0
7.767454e+00 3.951178e-09 0
7.767454e+00 3.171628e-09 0
7.767454e+00 2.742900e-09 0
7.767454e+00 2.805795e-09 0
7.767454e+00 3.323836e-09 0
7.767454e+00 4.105725e-09 0
7.767454e+00 4.907902e-09 0
7.767454e+00 5.567306e-09 0
7.767454e+00 6.068253e-09 0
7.767454e+00 6.515118e-09 0
7.767454e+00 7.045299e-09 0
7.767454e+00 7.742254e-09 0
7.767454e+00 8.591132e-09 0
7.767454e+00 9.488237e-09 0
7.767454e+00 1.029251e-08 0
7.767454e+00 1.089443e-08 0
7.767454e+00 1.127023e-08 0
7.767454e+00 1.149114e-08 0
7.767454e+00 1.167634e-08 0
7.767454e+00 1.191346e-08 0
7.767454e+00 1.219769e-08 0
7.767454e+00 1.243459e-08 0
7.767454e+00 1.250828e-08 0
7.767454e+00 1.236746e-08 0
7.767454e+00 1.206582e-08 0
7.767454e+00 1.172649e-08 0
7.767454e+00 1.145716e-08 0
7.767454e+00 1.127938e-08 0
7.767454e+00 1.112393e-08 0
7.767454e+00 1.089353e-08 0
7.767454e+00 1.054434e-08 0
7.767454e+00 1.012444e-08 0
7.767454e+00 9.738630e-09 0
7.767454e+00 9.466786e-09 0
7.767454e+00 9.301032e-09 0
7.767454e+00 9.153033e-09 0
7.767454e+00 8.928869e-09 0
7.767454e+00 8.614052e-09 0
7.767454e+00 8.295842e-09 0
7.767454e+00 8.098712e-09 0
7.767454e+00 8.084834e-09 0
7.767454e+00 8.203279e-09 0
7.767454e+00 8.331559e-09 0
7.767454e+00 8.374694e-09 0
7.767454e+00 8.337078e-09 0
7.767454e+00 8.307824e-09 0
7.767454e+00 8.377336e-09 0
7.767454e+00 8.558527e-09 0
7.767454e+00 8.777119e-09 0
7.767454e+00 8.932182e-09 0
7.767454e+00 8.966831e-09 0
7.767454e+00 8.894037e-09 0
7.767454e+00 8.769052e-09 0
7.767454e+00 8.639274e-09 0
7.767454e+00 8.514658e-09 0
7.767454e+00 8.372542e-09 0
7.767454e+00 8.180359e-09 0
7.767454e+00 7.916326e-09 0
7.767454e+00 7.579684e-09 0
7.767454e+00 7.192269e-09 0
7.767454e+00 6.791248e-09 0
7.767454e+00 6.411821e-09 0
7.767454e+00 6.069962e-09 0
7.767454e+00 5.757451e-09 0
7.767454e+00 5.453977e-09 0
7.767454e+00 5.148040e-09 0
7.767454e+00 4.851658e-09 0
7.767454e+00 4.594882e-09 0
7.767454e+00 4.404250e-09 0
7.767454e+00 4.287462e-09 0
7.767454e+00 4.233506e-09 0
7.767454e+00 4.224826e-09 0
7.767454e+00 4.249279e-09 0
7.767454e+00 4.302584e-09 0
7.767454e+00 4.384561e-09 0
7.767454e+00 4.496455e-09 0
7.767454e+00 4.640845e-09 0
7.767454e+00 4.819725e-09 0
7.767454e+00 5.029259e-09 0
7.767454e+00 5.256445e-09 0
7.767454e+00 5.483200e-09 0
7.767454e+00 5.696088e-09 0
7.767454e+00 5.892842e-09 0
7.767454e+00 6.078974e-09 0
7.767454e+00 6.257973e-09 0
7.767454e+00 6.425169e-09 0
7.767454e+00 6.570974e-09 0
7.767454e+00 6.688762e-09 0
7.767454e+00 6.778510e-09 0
7.767454e+00 6.843397e-09 0
7.767454e+00 6.884177e-09 0
7.767454e+00 6.897838e-09 0
7.767454e+00 6.881603e-09 0
7.767454e+00 6.836706e-09 0
7.767454e+00 6.767696e-09 0
7.767454e+00 6.679051e-09 0
7.767454e+00 6.572635e-09 0
7.767454e+00 6.448160e-09 0
7.767454e+00 6.304642e-09 0
7.767454e+00 6.140655e-09 0
7.767454e+00 5.954570e-09 0
7.767454e+00 5.745471e-09 0
7.767454e+00 5.515044e-09 0
7.767454e+00 5.267980e-09 0
7.767454e+00 5.009290e-09 0
7.767454e+00 4.742012e-09 0
7.767454e+00 4.466865e-09 0
7.767454e+00 4.184229e-09 0
7.767454e+00 3.897177e-09 0
7.767454e+00 3.611686e-09 0
7.767454e+00 3.334518e-09 0
7.767454e+00 3.072342e-09 0
7.767454e+00 2.830521e-09 0
7.767454e+00 2.613253e-09 0
7.767454e+00 2.424232e-09 0
7.767454e+00 2.266471e-09 0
7.767454e+00 2.142625e-09 0
7.767454e+00 2.054020e-09 0
7.767454e+00 2.000701e-09 0
7.767454e+00 1.981154e-09 0
7.767454e+00 1.992195e-09 0
7.767454e+00 2.029102e-09 0
7.767454e+00 2.085337e-09 0
7.767454e+00 2.151838e-09 0
7.767454e+00 2.215919e-09 0
7.767454e+00 2.261065e-09 0
7.767454e+00 2.261777e-09 0
7.767454e+00 2.188395e-09 0
7.767454e+00 2.022113e-09 0
7.767454e+00 1.858368e-09 0
7.767454e+00 1.802336e-09 0
9.933253e+00 1.886395e-08 0
9.933253e+00 3.327658e-08 0
9.933253e+00 5.200495e-08 0
9.933253e+00 4.996673e-08 0
9.933253e+00 3.295641e-08 0
9.933253e+00 1.481497e-08 0
9.933253e+00 6.741876e-09 0
9.933253e+00 1.117749e-08 0
9.933253e+00 2.206086e-08 0
9.933253e+00 3.019583e-08 0
9.933253e+00 2.989568e-08 0
9.933253e+00 2.214498e-08 0
9.933253e+00 1.280755e-08 0
9.933253e+00 7.597029e-09 0
9.933253e+00 8.334945e-09 0
9.933253e+00 1.279823e-08 0
9.933253e+00 1.710666e-08 0
9.933253e+00 1.861616e-08 0
9.933253e+00 1.715880e-08 0
9.933253e+00 1.427735e-08 0
9.933253e+00 1.166337e-08 0
9.933253e+00 1.006795e-08 0
9.933253e+00 9.220660e-09 0
9.933253e+00 8.456128e-09 0
9.933253e+00 7.352626e-09 0
9.933253e+00 5.917834e-09 0
9.933253e+00 4.425285e-09 0
9.933253e+00 3.164427e-09 0
9.933253e+00 2.268457e-09 0
9.933253e+00 1.725685e-09 0
9.933253e+00 1.475626e-09 0
9.933253e+00 1.501197e-09 0
9.933253e+00 1.831573e-09 0
9.933253e+00 2.465964e-09 0
9.933253e+00 3.328687e-09 0
9.933253e+00 4.294267e-09 0
9.933253e+00 5.254465e-09 0
9.933253e+00 6.175670e-09 0
9.933253e+00 7.099886e-09 0
9.933253e+00 8.091813e-09 0
9.933253e+00 9.169221e-09 0
9.933253e+00 1.026751e-08 0
9.933253e+00 1.126608e-08 0
9.933253e+00 1.205865e-08 0
9.933253e+00 1.261619e-08 0
9.933253e+00 1.299656e-08 0
9.933253e+00 1.329455e-08 0
9.933253e+00 1.357042e-08 0
9.933253e+00 1.381003e-08 0
9.933253e+00 1.394436e-08 0
9.933253e+00 1.391091e-08 0
9.933253e+00 1.370930e-08 0
9.933253e+00 1.340913e-08 0
9.933253e+00 1.310511e-08 0
9.933253e+00 1.285379e-08 0
9.933253e+00 1.263894e-08 0
9.933253e+00 1.239170e-08 0
9.933253e+00 1.205093e-08 0
9.933253e+00 1.161865e-08 0
9.933253e+00 1.116601e-08 0
9.933253e+00 1.078212e-08 0
9.933253e+00 1.050395e-08 0
9.933253e+00 1.028351e-08 0
9.933253e+00 1.002521e-08 0
9.933253e+00 9.670581e-09 0
9.933253e+00 9.259123e-09 0
9.933253e+00 8.908316e-09 0
9.933253e+00 8.724475e-09 0
9.933253e+00 8.716332e-09 0
9.933253e+00 8.785914e-09 0
9.933253e+00 8.807702e-09 0
9.933253e+00 8.729214e-09 0
9.933253e+00 8.606686e-09 0
9.933253e+00 8.548117e-09 0