<?xml version="1.0"?>
<VTKFile type="StructuredGrid">
<StructuredGrid WholeExtent="0 158 0 30 0 0 ">
<Piece Extent="0 158 0 30 0 0 ">
<Points>
<DataArray type="Float64" format="ascii" NumberOfComponents="3">
0.000000e+00 0.000000e+00 0.000000e+00
3.164557e-02 0.000000e+00 0.000000e+00
6.329114e-02 0.000000e+00 0.000000e+00
9.493671e-02 0.000000e+00 0.000000e+00
1.265823e-01 0.000000e+00 0.000000e+00
1.582278e-01 0.000000e+00 0.000000e+00
1.898734e-01 0.000000e+00 0.000000e+00
2.215190e-01 0.000000e+00 0.000000e+00
2.531646e-01 0.000000e+00 0.000000e+00
2.848101e-01 0.000000e+00 0.000000e+00
3.164557e-01 0.000000e+00 0.000000e+00
3.481013e-01 0.000000e+00 0.000000e+00
3.797468e-01 0.000000e+00 0.000000e+00
4.113924e-01 0.000000e+00 0.000000e+00
4.430380e-01 0.000000e+00 0.000000e+00
4.746835e-01 0.000000e+00 0.000000e+00
5.063291e-01 0.000000e+00 0.000000e+00
5.379747e-01 0.000000e+00 0.000000e+00
5.696203e-01 0.000000e+00 0.000000e+00
6.012658e-01 0.000000e+00 0.000000e+00
6.329114e-01 0.000000e+00 0.000000e+00
6.645570e-01 0.000000e+00 0.000000e+00
6.962025e-01 0.000000e+00 0.000000e+00
7.278481e-01 0.000000e+00 0.000000e+00
7.594937e-01 0.000000e+00 0.000000e+00
7.911392e-01 0.000000e+00 0.000000e+00
8.227848e-01 0.000000e+00 0.000000e+00
8.544304e-01 0.000000e+00 0.000000e+00
8.860759e-01 0.000000e+00 0.000000e+00
9.177215e-01 0.000000e+00 0.000000e+00
9.493671e-01 0.000000e+00 0.000000e+00
9.810127e-01 0.000000e+00 0.000000e+00
1.012658e+00 0.000000e+00 0.000000e+00
1.044304e+00 0.000000e+00 0.000000e+00
1.075949e+00 0.000000e+00 0.000000e+00
1.107595e+00 0.000000e+00 0.000000e+00
1.139241e+00 0.000000e+00 0.000000e+00
1.170886e+00 0.000000e+00 0.000000e+00
1.202532e+00 0.000000e+00 0.000000e+00
1.234177e+00 0.000000e+00 0.000000e+00
1.265823e+00 0.000000e+00 0.000000e+00
1.297468e+00 0.000000e+00 0.000000e+00
1.329114e+00 0.000000e+00 0.000000e+00
1.360759e+00 0.000000e+00 0.000000e+00
1.392405e+00 0.000000e+00 0.000000e+00
1.424051e+00 0.000000e+00 0.000000e+00
1.455696e+00 0.000000e+00 0.000000e+00
1.487342e+00 0.000000e+00 0.000000e+00
1.518987e+00 0.000000e+00 0.000000e+00
1.550633e+00 0.000000e+00 0.000000e+00
1.582278e+00 0.000000e+00 0.000000e+00
1.613924e+00 0.000000e+00 0.000000e+00
1.645570e+00 0.000000e+00 0.000000e+00
1.677215e+00 0.000000e+00 0.000000e+00
1.708861e+00 0.000000e+00 0.000000e+00
1.740506e+00 0.000000e+00 0.000000e+00
1.772152e+00 0.000000e+00 0.000000e+00
1.803797e+00 0.000000e+00 0.000000e+00
1.835443e+00 0.000000e+00 0.000000e+00
1.867089e+00 0.000000e+00 0.000000e+00
1.898734e+00 0.000000e+00 0.000000e+00
1.930380e+00 0.000000e+00 0.000000e+00
1.962025e+00 0.000000e+00 0.000000e+00
1.993671e+00 0.000000e+00 0.000000e+00
2.025316e+00 0.000000e+00 0.000000e+00
2.056962e+00 0.000000e+00 0.000000e+00
2.088608e+00 0.000000e+00 0.000000e+00
2.120253e+00 0.000000e+00 0.000000e+00
2.151899e+00 0.000000e+00 0.000000e+00
2.183544e+00 0.000000e+00 0.000000e+00
2.215190e+00 0.000000e+00 0.000000e+00
2.246835e+00 0.000000e+00 0.000000e+00
2.278481e+00 0.000000e+00 0.000000e+00
2.310127e+00 0.000000e+00 0.000000e+00
2.341772e+00 0.000000e+00 0.000000e+00
2.373418e+00 0.000000e+00 0.000000e+00
2.405063e+00 0.000000e+00 0.000000e+00
2.436709e+00 0.000000e+00 0.000000e+00
2.468354e+00 0.000000e+00 0.000000e+00
2.500000e+00 0.000000e+00 0.000000e+00
2.531646e+00 0.000000e+00 0.000000e+00
2.563291e+00 0.000000e+00 0.000000e+00
2.594937e+00 0.000000e+00 0.000000e+00
2.626582e+00 0.000000e+00 0.000000e+00
2.658228e+00 0.000000e+00 0.000000e+00
2.689873e+00 0.000000e+00 0.000000e+00
2.721519e+00 0.000000e+00 0.000000e+00
2.753165e+00 0.000000e+00 0.000000e+00
2.784810e+00 0.000000e+00 0.000000e+00
2.816456e+00 0.000000e+00 0.000000e+00
2.848101e+00 0.000000e+00 0.000000e+00
2.879747e+00 0.000000e+00 0.000000e+00
2.911392e+00 0.000000e+00 0.000000e+00
2.943038e+00 0.000000e+00 0.000000e+00
2.974684e+00 0.000000e+00 0.000000e+00
3.006329e+00 0.000000e+00 0.000000e+00
3.037975e+00 0.000000e+00 0.000000e+00
3.069620e+00 0.000000e+00 0.000000e+00
3.101266e+00 0.000000e+00 0.000000e+00
3.132911e+00 0.000000e+00 0.000000e+00
3.164557e+00 0.000000e+00 0.000000e+00
3.196203e+00 0.000000e+00 0.000000e+00
3.227848e+00 0.000000e+00 0.000000e+00
3.259494e+00 0.000000e+00 0.000000e+00
3.291139e+00 0.000000e+00 0.000000e+00
3.322785e+00 0.000000e+00 0.000000e+00
3.354430e+00 0.000000e+00 0.000000e+00
3.386076e+00 0.000000e+00 0.000000e+00
3.417722e+00 0.000000e+00 0.000000e+00
3.449367e+00 0.000000e+00 0.000000e+00
3.481013e+00 0.000000e+00 0.000000e+00
3.512658e+00 0.000000e+00 0.000000e+00
3.544304e+00 0.000000e+00 0.000000e+00
3.575949e+00 0.000000e+00 0.000000e+00
3.607595e+00 0.000000e+00 0.000000e+00
3.639241e+00 0.000000e+00 0.000000e+00
3.670886e+00 0.000000e+00 0.000000e+00
3.702532e+00 0.000000e+00 0.000000e+00
3.734177e+00 0.000000e+00 0.000000e+00
3.765823e+00 0.000000e+00 0.000000e+00
3.797468e+00 0.000000e+00 0.000000e+00
3.829114e+00 0.000000e+00 0.000000e+00
3.860759e+00 0.000000e+00 0.000000e+00
3.892405e+00 0.000000e+00 0.000000e+00
3.924051e+00 0.000000e+00 0.000000e+00
3.955696e+00 0.000000e+00 0.000000e+00
3.987342e+00 0.000000e+00 0.000000e+00
4.018987e+00 0.000000e+00 0.000000e+00
4.050633e+00 0.000000e+00 0.000000e+00
4.082278e+00 0.000000e+00 0.000000e+00
4.113924e+00 0.000000e+00 0.000000e+00
4.145570e+00 0.000000e+00 0.000000e+00
4.177215e+00 0.000000e+00 0.000000e+00
4.208861e+00 0.000000e+00 0.000000e+00
4.240506e+00 0.000000e+00 0.000000e+00
4.272152e+00 0.000000e+00 0.000000e+00
4.303797e+00 0.000000e+00 0.000000e+00
4.335443e+00 0.000000e+00 0.000000e+00
4.367089e+00 0.000000e+00 0.000000e+00
4.398734e+00 0.000000e+00 0.000000e+00
4.430380e+00 0.000000e+00 0.000000e+00
4.462025e+00 0.000000e+00 0.000000e+00
4.493671e+00 0.000000e+00 0.000000e+00
4.525316e+00 0.000000e+00 0.000000e+00
4.556962e+00 0.000000e+00 0.000000e+00
4.588608e+00 0.000000e+00 0.000000e+00
4.620253e+00 0.000000e+00 0.000000e+00
4.651899e+00 0.000000e+00 0.000000e+00
4.683544e+00 0.000000e+00 0.000000e+00
4.715190e+00 0.000000e+00 0.000000e+00
4.746835e+00 0.000000e+00 0.000000e+00
4.778481e+00 0.000000e+00 0.000000e+00
4.810127e+00 0.000000e+00 0.000000e+00
4.841772e+00 0.000000e+00 0.000000e+00
4.873418e+00 0.000000e+00 0.000000e+00
4.905063e+00 0.000000e+00 0.000000e+00
4.936709e+00 0.000000e+00 0.000000e+00
4.968354e+00 0.000000e+00 0.000000e+00
5.000000e+00 0.000000e+00 0.000000e+00
0.000000e+00 3.333333e-02 0.000000e+00
3.164557e-02 3.333333e-02 0.000000e+00
6.329114e-02 3.333333e-02 0.000000e+00
9.493671e-02 3.333333e-02 0.000000e+00
1.265823e-01 3.333333e-02 0.000000e+00
1.582278e-01 3.333333e-02 0.000000e+00
1.898734e-01 3.333333e-02 0.000000e+00
2.215190e-01 3.333333e-02 0.000000e+00
2.531646e-01 3.333333e-02 0.000000e+00
2.848101e-01 3.333333e-02 0.000000e+00
3.164557e-01 3.333333e-02 0.000000e+00
3.481013e-01 3.333333e-02 0.000000e+00
3.797468e-01 3.333333e-02 0.000000e+00
4.113924e-01 3.333333e-02 0.000000e+00
4.430380e-01 3.333333e-02 0.000000e+00
4.746835e-01 3.333333e-02 0.000000e+00
5.063291e-01 3.333333e-02 0.000000e+00
5.379747e-01 3.333333e-02 0.000000e+00
5.696203e-01 3.333333e-02 0.000000e+00
6.012658e-01 3.333333e-02 0.000000e+00
6.329114e-01 3.333333e-02 0.000000e+00
6.645570e-01 3.333333e-02 0.000000e+00
6.962025e-01 3.333333e-02 0.000000e+00
7.278481e-01 3.333333e-02 0.000000e+00
7.594937e-01 3.333333e-02 0.000000e+00
7.911392e-01 3.333333e-02 0.000000e+00
8.227848e-01 3.333333e-02 0.000000e+00
8.544304e-01 3.333333e-02 0.000000e+00
8.860759e-01 3.333333e-02 0.000000e+00
9.177215e-01 3.333333e-02 0.000000e+00
9.493671e-01 3.333333e-02 0.000000e+00
9.810127e-01 3.333333e-02 0.000000e+00
1.012658e+00 3.333333e-02 0.000000e+00
1.044304e+00 3.333333e-02 0.000000e+00
1.075949e+00 3.333333e-02 0.000000e+00
1.107595e+00 3.333333e-02 0.000000e+00
1.139241e+00 3.333333e-02 0.000000e+00
1.170886e+00 3.333333e-02 0.000000e+00
1.202532e+00 3.333333e-02 0.000000e+00
1.234177e+00 3.333333e-02 0.000000e+00
1.265823e+00 3.333333e-02 0.000000e+00
1.297468e+00 3.333333e-02 0.000000e+00
1.329114e+00 3.333333e-02 0.000000e+00
1.360759e+00 3.333333e-02 0.000000e+00
1.392405e+00 3.333333e-02 0.000000e+00
1.424051e+00 3.333333e-02 0.000000e+00
1.455696e+00 3.333333e-02 0.000000e+00
1.487342e+00 3.333333e-02 0.000000e+00
1.518987e+00 3.333333e-02 0.000000e+00
1.550633e+00 3.333333e-02 0.000000e+00
1.582278e+00 3.333333e-02 0.000000e+00
1.613924e+00 3.333333e-02 0.000000e+00
1.645570e+00 3.333333e-02 0.000000e+00
1.677215e+00 3.333333e-02 0.000000e+00
1.708861e+00 3.333333e-02 0.000000e+00
1.740506e+00 3.333333e-02 0.000000e+00
1.772152e+00 3.333333e-02 0.000000e+00
1.803797e+00 3.333333e-02 0.000000e+00
1.835443e+00 3.333333e-02 0.000000e+00
1.867089e+00 3.333333e-02 0.000000e+00
1.898734e+00 3.333333e-02 0.000000e+00
1.930380e+00 3.333333e-02 0.000000e+00
1.962025e+00 3.333333e-02 0.000000e+00
1.993671e+00 3.333333e-02 0.000000e+00
2.025316e+00 3.333333e-02 0.000000e+00
2.056962e+00 3.333333e-02 0.000000e+00
2.088608e+00 3.333333e-02 0.000000e+00
2.120253e+00 3.333333e-02 0.000000e+00
2.151899e+00 3.333333e-02 0.000000e+00
2.183544e+00 3.333333e-02 0.000000e+00
2.215190e+00 3.333333e-02 0.000000e+00
2.246835e+00 3.333333e-02 0.000000e+00
2.278481e+00 3.333333e-02 0.000000e+00
2.310127e+00 3.333333e-02 0.000000e+00
2.341772e+00 3.333333e-02 0.000000e+00
2.373418e+00 3.333333e-02 0.000000e+00
2.405063e+00 3.333333e-02 0.000000e+00
2.436709e+00 3.333333e-02 0.000000e+00
2.468354e+00 3.333333e-02 0.000000e+00
2.500000e+00 3.333333e-02 0.000000e+00
2.531646e+00 3.333333e-02 0.000000e+00
2.563291e+00 3.333333e-02 0.000000e+00
2.594937e+00 3.333333e-02 0.000000e+00
2.626582e+00 3.333333e-02 0.000000e+00
2.658228e+00 3.333333e-02 0.000000e+00
2.689873e+00 3.333333e-02 0.000000e+00
2.721519e+00 3.333333e-02 0.000000e+00
2.753165e+00 3.333333e-02 0.000000e+00
2.784810e+00 3.333333e-02 0.000000e+00
2.816456e+00 3.333333e-02 0.000000e+00
2.848101e+00 3.333333e-02 0.000000e+00
2.879747e+00 3.333333e-02 0.000000e+00
[...]
<PointData>
<DataArray Name="Velocity" type="Float64" format="ascii" NumberOfComponents="3">
0.000000e+00 0.000000e+00 0
0.000000e+00 0.000000e+00 0
0.000000e+00 0.000000e+00 0
0.000000e+00 0.000000e+00 0
0.000000e+00 0.000000e+00 0
0.000000e+00 0.000000e+00 0
0.000000e+00 0.000000e+00 0
0.000000e+00 0.000000e+00 0
0.000000e+00 0.000000e+00 0
0.000000e+00 0.000000e+00 0
0.000000e+00 0.000000e+00 0
0.000000e+00 0.000000e+00 0
0.000000e+00 0.000000e+00 0
0.000000e+00 0.000000e+00 0
0.000000e+00 0.000000e+00 0
0.000000e+00 0.000000e+00 0
0.000000e+00 0.000000e+00 0
0.000000e+00 0.000000e+00 0
0.000000e+00 0.000000e+00 0
3.490403e-17 0.000000e+00 0
0.000000e+00 0.000000e+00 0
0.000000e+00 0.000000e+00 0
0.000000e+00 0.000000e+00 0
3.490399e-17 0.000000e+00 0
0.000000e+00 0.000000e+00 0
0.000000e+00 0.000000e+00 0
0.000000e+00 0.000000e+00 0
3.490393e-17 0.000000e+00 0
0.000000e+00 0.000000e+00 0
0.000000e+00 0.000000e+00 0
0.000000e+00 0.000000e+00 0
3.490390e-17 0.000000e+00 0
0.000000e+00 0.000000e+00 0
0.000000e+00 0.000000e+00 0
0.000000e+00 0.000000e+00 0
0.000000e+00 0.000000e+00 0
0.000000e+00 0.000000e+00 0
0.000000e+00 0.000000e+00 0
-4.121470e-17 0.000000e+00 0
0.000000e+00 0.000000e+00 0
0.000000e+00 0.000000e+00 0
0.000000e+00 0.000000e+00 0
0.000000e+00 0.000000e+00 0
0.000000e+00 0.000000e+00 0
0.000000e+00 0.000000e+00 0
0.000000e+00 0.000000e+00 0
-4.121495e-17 0.000000e+00 0
0.000000e+00 0.000000e+00 0
0.000000e+00 0.000000e+00 0
0.000000e+00 0.000000e+00 0
0.000000e+00 0.000000e+00 0
0.000000e+00 0.000000e+00 0
0.000000e+00 0.000000e+00 0
0.000000e+00 0.000000e+00 0
-4.121519e-17 0.000000e+00 0
0.000000e+00 0.000000e+00 0
0.000000e+00 0.000000e+00 0
0.000000e+00 0.000000e+00 0
0.000000e+00 0.000000e+00 0
0.000000e+00 0.000000e+00 0
0.000000e+00 0.000000e+00 0
0.000000e+00 0.000000e+00 0
-4.121543e-17 0.000000e+00 0
0.000000e+00 0.000000e+00 0
0.000000e+00 0.000000e+00 0
0.000000e+00 0.000000e+00 0
0.000000e+00 0.000000e+00 0
0.000000e+00 0.000000e+00 0
0.000000e+00 0.000000e+00 0
0.000000e+00 0.000000e+00 0
0.000000e+00 0.000000e+00 0
0.000000e+00 0.000000e+00 0
0.000000e+00 0.000000e+00 0
0.000000e+00 0.000000e+00 0
0.000000e+00 0.000000e+00 0
0.000000e+00 0.000000e+00 0
0.000000e+00 0.000000e+00 0
0.000000e+00 0.000000e+00 0
0.000000e+00 0.000000e+00 0
0.000000e+00 0.000000e+00 0
0.000000e+00 0.000000e+00 0
0.000000e+00 0.000000e+00 0
0.000000e+00 0.000000e+00 0
0.000000e+00 0.000000e+00 0
0.000000e+00 0.000000e+00 0
0.000000e+00 0.000000e+00 0
0.000000e+00 0.000000e+00 0
0.000000e+00 0.000000e+00 0
0.000000e+00 0.000000e+00 0
0.000000e+00 0.000000e+00 0
0.000000e+00 0.000000e+00 0
0.000000e+00 0.000000e+00 0
0.000000e+00 0.000000e+00 0
0.000000e+00 0.000000e+00 0
0.000000e+00 0.000000e+00 0
0.000000e+00 0.000000e+00 0
0.000000e+00 0.000000e+00 0
0.000000e+00 0.000000e+00 0
0.000000e+00 0.000000e+00 0
0.000000e+00 0.000000e+00 0
0.000000e+00 0.000000e+00 0
0.000000e+00 0.000000e+00 0
0.000000e+00 0.000000e+00 0
0.000000e+00 0.000000e+00 0
0.000000e+00 0.000000e+00 0
0.000000e+00 0.000000e+00 0
0.000000e+00 0.000000e+00 0
0.000000e+00 0.000000e+00 0
0.000000e+00 0.000000e+00 0
0.000000e+00 0.000000e+00 0
0.000000e+00 0.000000e+00 0
0.000000e+00 0.000000e+00 0
0.000000e+00 0.000000e+00 0
0.000000e+00 0.000000e+00 0
0.000000e+00 0.000000e+00 0
0.000000e+00 0.000000e+00 0
0.000000e+00 0.000000e+00 0
0.000000e+00 0.000000e+00 0
0.000000e+00 0.000000e+00 0
0.000000e+00 0.000000e+00 0
0.000000e+00 0.000000e+00 0
0.000000e+00 0.000000e+00 0
0.000000e+00 0.000000e+00 0
0.000000e+00 0.000000e+00 0
0.000000e+00 0.000000e+00 0
0.000000e+00 0.000000e+00 0
0.000000e+00 0.000000e+00 0
0.000000e+00 0.000000e+00 0
0.000000e+00 0.000000e+00 0
0.000000e+00 0.000000e+00 0
0.000000e+00 0.000000e+00 0
0.000000e+00 0.000000e+00 0
0.000000e+00 0.000000e+00 0
0.000000e+00 0.000000e+00 0
0.000000e+00 0.000000e+00 0
0.000000e+00 0.000000e+00 0
0.000000e+00 0.000000e+00 0
0.000000e+00 0.000000e+00 0
0.000000e+00 0.000000e+00 0
0.000000e+00 0.000000e+00 0
0.000000e+00 0.000000e+00 0
0.000000e+00 0.000000e+00 0
0.000000e+00 0.000000e+00 0
0.000000e+00 0.000000e+00 0
0.000000e+00 0.000000e+00 0
0.000000e+00 0.000000e+00 0
0.000000e+00 0.000000e+00 0
0.000000e+00 0.000000e+00 0
0.000000e+00 0.000000e+00 0
0.000000e+00 0.000000e+00 0
0.000000e+00 0.000000e+00 0
0.000000e+00 0.000000e+00 0
0.000000e+00 0.000000e+00 0
0.000000e+00 0.000000e+00 0
0.000000e+00 0.000000e+00 0
0.000000e+00 0.000000e+00 0
0.000000e+00 0.000000e+00 0
0.000000e+00 0.000000e+00 0
0.000000e+00 0.000000e+00 0
2.555017e+00 1.025445e-08 0
2.555017e+00 1.555926e-08 0
2.555017e+00 1.808088e-08 0
2.555017e+00 1.183829e-08 0
2.555017e+00 8.925023e-09 0
2.555017e+00 1.365474e-08 0
2.555017e+00 2.269413e-08 0
2.555017e+00 3.069755e-08 0
2.555017e+00 3.393223e-08 0
2.555017e+00 3.177886e-08 0
2.555017e+00 2.704030e-08 0
2.555017e+00 2.327198e-08 0
2.555017e+00 2.198478e-08 0
2.555017e+00 2.229776e-08 0
2.555017e+00 2.246550e-08 0
2.555017e+00 2.123546e-08 0
2.555017e+00 1.829549e-08 0
2.555017e+00 1.435029e-08 0
2.555017e+00 1.069771e-08 0
2.555017e+00 8.372663e-09 0
2.555017e+00 7.620841e-09 0
2.555017e+00 8.012458e-09 0
2.555017e+00 8.842282e-09 0
2.555017e+00 9.397805e-09 0
2.555017e+00 9.114799e-09 0
2.555017e+00 7.813732e-09 0
2.555017e+00 5.920769e-09 0
2.555017e+00 4.406577e-09 0
2.555017e+00 4.283900e-09 0
2.555017e+00 5.870819e-09 0
2.555017e+00 8.365091e-09 0
2.555017e+00 1.019547e-08 0
2.555017e+00 1.006503e-08 0
2.555017e+00 7.974524e-09 0
2.555017e+00 5.379361e-09 0
2.555017e+00 4.230425e-09 0
2.555017e+00 5.551262e-09 0
2.555017e+00 8.638095e-09 0
2.555017e+00 1.152597e-08 0
2.555017e+00 1.238500e-08 0
2.555017e+00 1.079600e-08 0
2.555017e+00 7.975759e-09 0
2.555017e+00 5.849866e-09 0
2.555017e+00 5.716078e-09 0
2.555017e+00 7.462023e-09 0
2.555017e+00 9.801425e-09 0
2.555017e+00 1.123435e-08 0
2.555017e+00 1.100081e-08 0
2.555017e+00 9.431128e-09 0
2.555017e+00 7.592826e-09 0
2.555017e+00 6.576916e-09 0
2.555017e+00 6.887487e-09 0
2.555017e+00 8.228178e-09 0
2.555017e+00 9.724873e-09 0
2.555017e+00 1.044006e-08 0
2.555017e+00 9.931516e-09 0
2.555017e+00 8.557857e-09 0
2.555017e+00 7.294571e-09 0
2.555017e+00 7.084451e-09 0
2.555017e+00 8.120608e-09 0
2.555017e+00 9.634337e-09 0
2.555017e+00 1.045459e-08 0
2.555017e+00 9.959740e-09 0
2.555017e+00 8.618539e-09 0
2.555017e+00 7.599325e-09 0
2.555017e+00 7.753096e-09 0
2.555017e+00 8.880896e-09 0
2.555017e+00 9.957295e-09 0
2.555017e+00 1.008548e-08 0
2.555017e+00 9.276268e-09 0
2.555017e+00 8.350097e-09 0
2.555017e+00 8.124452e-09 0
2.555017e+00 8.702028e-09 0
2.555017e+00 9.496776e-09 0
2.555017e+00 9.869150e-09 0
2.555017e+00 9.694674e-09 0
2.555017e+00 9.355256e-09 0
2.555017e+00 9.267003e-09 0
2.555017e+00 9.480100e-09 0
2.555017e+00 9.723407e-09 0
2.555017e+00 9.762619e-09 0
2.555017e+00 9.647549e-09 0
2.555017e+00 9.602731e-09 0
2.555017e+00 9.723419e-09 0
2.555017e+00 9.837424e-09 0
2.555017e+00 9.692531e-09 0
2.555017e+00 9.262458e-09 0
2.555017e+00 8.825262e-09 0
2.555017e+00 8.706014e-09 0
2.555017e+00 8.939724e-09 0
2.555017e+00 9.207156e-09 0
2.555017e+00 9.127023e-09 0
2.555017e+00 8.628023e-09 0
2.555017e+00 8.030525e-09 0
2.555017e+00 7.750028e-09 0
2.555017e+00 7.911622e-09 0
2.555017e+00 8.248089e-09 0
2.555017e+00 8.368951e-09 0
2.555017e+00 8.126935e-09 0
2.555017e+00 7.731290e-09 0
2.555017e+00 7.521502e-09 0
2.555017e+00 7.642908e-09 0
2.555017e+00 7.935122e-09 0
2.555017e+00 8.111149e-09 0
2.555017e+00 8.027814e-09 0
2.555017e+00 7.791553e-09 0
2.555017e+00 7.629103e-09 0
2.555017e+00 7.673265e-09 0
2.555017e+00 7.862755e-09 0
2.555017e+00 8.021317e-09 0
2.555017e+00 8.015929e-09 0
2.555017e+00 7.850177e-09 0
2.555017e+00 7.632507e-09 0
2.555017e+00 7.471632e-09 0
2.555017e+00 7.399270e-09 0
2.555017e+00 7.371155e-09 0
2.555017e+00 7.322639e-09 0
2.555017e+00 7.221415e-09 0
2.555017e+00 7.078633e-09 0
2.555017e+00 6.925456e-09 0
2.555017e+00 6.787622e-09 0
2.555017e+00 6.677511e-09 0
2.555017e+00 6.598858e-09 0
2.555017e+00 6.550537e-09 0
2.555017e+00 6.525759e-09 0
2.555017e+00 6.513159e-09 0
2.555017e+00 6.502674e-09 0
2.555017e+00 6.492213e-09 0
2.555017e+00 6.489396e-09 0
2.555017e+00 6.505550e-09 0
2.555017e+00 6.546091e-09 0
2.555017e+00 6.604836e-09 0
2.555017e+00 6.666655e-09 0
2.555017e+00 6.717684e-09 0
2.555017e+00 6.754420e-09 0
2.555017e+00 6.782587e-09 0
2.555017e+00 6.808409e-09 0
2.555017e+00 6.832335e-09 0
2.555017e+00 6.850022e-09 0
2.555017e+00 6.856371e-09 0
2.555017e+00 6.847818e-09 0
2.555017e+00 6.823096e-09 0
2.555017e+00 6.782762e-09 0
2.555017e+00 6.729551e-09 0
2.555017e+00 6.667878e-09 0
2.555017e+00 6.601037e-09 0
2.555017e+00 6.529297e-09 0
2.555017e+00 6.451737e-09 0
2.555017e+00 6.367982e-09 0
2.555017e+00 6.277756e-09 0
2.555017e+00 6.181917e-09 0
2.555017e+00 6.079734e-09 0
2.555017e+00 5.967888e-09 0
2.555017e+00 5.838460e-09 0
2.555017e+00 5.668814e-09 0
2.555017e+00 5.399539e-09 0
2.555017e+00 4.852335e-09 0
2.555017e+00 2.921830e-09 0
2.555017e+00 1.368237e-09 0
4.895123e+00 6.231564e-09 0
4.895123e+00 6.394110e-09 0
4.895123e+00 1.525346e-09 0
4.895122e+00 -6.944237e-09 0
4.895122e+00 -8.156418e-09 0
4.895122e+00 3.726161e-10 0
4.895123e+00 1.279989e-08 0
4.895123e+00 2.178750e-08 0
4.895123e+00 2.408748e-08 0
4.895122e+00 2.159573e-08 0
4.895122e+00 1.852523e-08 0
4.895122e+00 1.784513e-08 0
4.895122e+00 1.972176e-08 0
4.895123e+00 2.228445e-08 0
4.895123e+00 2.345108e-08 0
4.895122e+00 2.218357e-08 0
4.895122e+00 1.878930e-08 0
4.895122e+00 1.456742e-08 0
4.895122e+00 1.102781e-08 0
4.895122e+00 9.114952e-09 0
4.895122e+00 8.870529e-09 0
4.895122e+00 9.618056e-09 0
4.895123e+00 1.040813e-08 0
4.895123e+00 1.044071e-08 0
4.895123e+00 9.364248e-09 0
4.895122e+00 7.434129e-09 0
4.895122e+00 5.468325e-09 0
4.895122e+00 4.517360e-09 0
4.895122e+00 5.272467e-09 0
4.895123e+00 7.502367e-09 0
4.895123e+00 9.982476e-09 0
4.895123e+00 1.115892e-08 0
4.895123e+00 1.022270e-08 0
4.895122e+00 7.812571e-09 0
4.895122e+00 5.705229e-09 0
4.895122e+00 5.595860e-09 0
4.895122e+00 7.841007e-09 0
4.895122e+00 1.114304e-08 0
4.895122e+00 1.345376e-08 0
4.895122e+00 1.342381e-08 0
4.895122e+00 1.131072e-08 0
4.895122e+00 8.707269e-09 0
4.895122e+00 7.366527e-09 0
4.895122e+00 8.032501e-09 0
4.895122e+00 1.007993e-08 0
4.895122e+00 1.209429e-08 0
4.895122e+00 1.286278e-08 0
4.895122e+00 1.207263e-08 0
4.895122e+00 1.034813e-08 0
4.895122e+00 8.749817e-09 0
4.895122e+00 8.135734e-09 0
4.895122e+00 8.738763e-09 0
4.895122e+00 1.010606e-08 0
4.895122e+00 1.137178e-08 0
4.895122e+00 1.174026e-08 0
4.895122e+00 1.097344e-08 0
4.895122e+00 9.599215e-09 0
4.895122e+00 8.621376e-09 0
4.895122e+00 8.818896e-09 0
4.895122e+00 1.011010e-08 0
4.895122e+00 1.154080e-08 0
4.895122e+00 1.201447e-08 0
4.895122e+00 1.121093e-08 0
4.895122e+00 9.878766e-09 0
4.895122e+00 9.188463e-09 0
4.895122e+00 9.699919e-09 0
4.895122e+00 1.089041e-08 0
4.895122e+00 1.167599e-08 0
4.895122e+00 1.141422e-08 0
4.895122e+00 1.043746e-08 0
4.895122e+00 9.657358e-09 0
4.895122e+00 9.690746e-09 0
4.895122e+00 1.036387e-08 0
4.895122e+00 1.100107e-08 0
4.895122e+00 1.111790e-08 0
4.895122e+00 1.081064e-08 0
4.895122e+00 1.053187e-08 0
4.895122e+00 1.057977e-08 0
4.895122e+00 1.084699e-08 0
4.895122e+00 1.102640e-08 0
4.895122e+00 1.098250e-08 0
4.895122e+00 1.087119e-08 0
4.895122e+00 1.091024e-08 0
4.895122e+00 1.109106e-08 0
4.895122e+00 1.116730e-08 0
4.895122e+00 1.093407e-08 0
4.895122e+00 1.048490e-08 0
4.895122e+00 1.015332e-08 0
4.895122e+00 1.018376e-08 0
4.895122e+00 1.046690e-08 0
4.895122e+00 1.062309e-08 0
4.895122e+00 1.036773e-08 0
4.895122e+00 9.796210e-09 0
4.895122e+00 9.300707e-09 0
4.895122e+00 9.201254e-09 0
4.895122e+00 9.451972e-09 0
4.895122e+00 9.702548e-09 0
4.895122e+00 9.641888e-09 0
4.895122e+00 9.281893e-09 0
4.895122e+00 8.916960e-09 0
4.895122e+00 8.824131e-09 0
4.895122e+00 9.010244e-09 0
4.895122e+00 9.235337e-09 0
4.895122e+00 9.257893e-09 0
4.895122e+00 9.049416e-09 0
4.895122e+00 8.788110e-09 0
4.895122e+00 8.671602e-09 0
4.895122e+00 8.742174e-09 0
4.895122e+00 8.873838e-09 0
4.895122e+00 8.902338e-09 0
4.895122e+00 8.761634e-09 0
4.895122e+00 8.514641e-09 0
4.895122e+00 8.277161e-09 0
4.895122e+00 8.120957e-09 0
4.895122e+00 8.035166e-09 0
4.895122e+00 7.960340e-09 0
4.895122e+00 7.848530e-09 0
4.895122e+00 7.694015e-09 0
4.895122e+00 7.522050e-09 0
4.895122e+00 7.361827e-09 0
4.895122e+00 7.230878e-09 0
4.895122e+00 7.136000e-09 0
4.895122e+00 7.078364e-09 0
4.895122e+00 7.053727e-09 0
4.895122e+00 7.051684e-09 0
4.895122e+00 7.059859e-09 0
4.895122e+00 7.071595e-09 0
4.895122e+00 7.090523e-09 0
4.895122e+00 7.126856e-09 0
4.895122e+00 7.187989e-09 0
4.895122e+00 7.270452e-09 0
4.895122e+00 7.359188e-09 0
4.895122e+00 7.436443e-09 0
4.895122e+00 7.493191e-09 0
4.895122e+00 7.531809e-09 0
4.895122e+00 7.558884e-09 0
4.895122e+00 7.576880e-09 0
4.895122e+00 7.581957e-09 0
4.895122e+00 7.568128e-09 0
4.895122e+00 7.530945e-09 0
4.895122e+00 7.468886e-09 0
4.895122e+00 7.382912e-09 0
4.895122e+00 7.276777e-09 0
4.895122e+00 7.156811e-09 0
4.895122e+00 7.028349e-09 0
4.895122e+00 6.893605e-09 0
4.895122e+00 6.752742e-09 0
4.895122e+00 6.605940e-09 0
4.895122e+00 6.454069e-09 0
4.895122e+00 6.298496e-09 0
4.895122e+00 6.139896e-09 0
4.895122e+00 5.974886e-09 0
4.895122e+00 5.796123e-09 0
4.895122e+00 5.586012e-09 0
4.895122e+00 5.309010e-09 0
4.895122e+00 4.893252e-09 0
4.895122e+00 4.189258e-09 0
4.895122e+00 2.926523e-09 0
4.895122e+00 2.112744e-09 0
7.027551e+00 7.391625e-10 0
7.027551e+00 -5.973320e-09 0
7.027551e+00 -2.007715e-08 0
7.027551e+00 -2.951298e-08 0
7.027551e+00 -2.658704e-08 0
7.027551e+00 -1.360587e-08 0
7.027551e+00 4.873737e-10 0
7.027551e+00 8.493977e-09 0
7.027551e+00 9.376389e-09 0
7.027551e+00 6.968103e-09 0
7.027551e+00 5.836420e-09 0
7.027551e+00 8.102663e-09 0
7.027551e+00 1.287584e-08 0
7.027551e+00 1.770329e-08 0
7.027551e+00 2.034431e-08 0
7.027551e+00 1.988063e-08 0
7.027551e+00 1.689539e-08 0
7.027551e+00 1.292497e-08 0
7.027551e+00 9.639390e-09 0
7.027551e+00 8.076362e-09 0
7.027551e+00 8.239115e-09 0
7.027551e+00 9.268972e-09 0
7.027551e+00 1.001637e-08 0
7.027551e+00 9.654736e-09 0
7.027551e+00 8.071811e-09 0
7.027551e+00 5.917402e-09 0
7.027551e+00 4.324311e-09 0
7.027551e+00 4.350001e-09 0
7.027551e+00 6.314033e-09 0
7.027551e+00 9.408827e-09 0
7.027551e+00 1.198333e-08 0
7.027551e+00 1.252717e-08 0
7.027551e+00 1.077310e-08 0
7.027551e+00 8.054469e-09 0
7.027551e+00 6.490659e-09 0
7.027551e+00 7.487101e-09 0
7.027551e+00 1.066721e-08 0
7.027551e+00 1.409554e-08 0
7.027551e+00 1.565778e-08 0
7.027551e+00 1.455190e-08 0
7.027551e+00 1.177825e-08 0
7.027551e+00 9.328350e-09 0
7.027551e+00 8.761997e-09 0
7.027551e+00 1.023772e-08 0
7.027551e+00 1.260118e-08 0
7.027551e+00 1.430565e-08 0
7.027551e+00 1.441619e-08 0
7.027551e+00 1.305292e-08 0
7.027551e+00 1.113857e-08 0
7.027551e+00 9.766768e-09 0
7.027551e+00 9.615206e-09 0
7.027551e+00 1.065745e-08 0
7.027551e+00 1.222336e-08 0
7.027551e+00 1.335491e-08 0
7.027551e+00 1.334021e-08 0
7.027551e+00 1.218819e-08 0
7.027551e+00 1.071290e-08 0
7.027551e+00 1.003846e-08 0
7.027551e+00 1.076383e-08 0
7.027551e+00 1.242101e-08 0
7.027551e+00 1.376554e-08 0
7.027551e+00 1.377293e-08 0
7.027551e+00 1.252133e-08 0
7.027551e+00 1.113866e-08 0
7.027551e+00 1.080589e-08 0
7.027551e+00 1.171060e-08 0
7.027551e+00 1.292373e-08 0
7.027551e+00 1.329861e-08 0
7.027551e+00 1.251510e-08 0
7.027551e+00 1.128771e-08 0
7.027551e+00 1.061315e-08 0
7.027551e+00 1.085195e-08 0
7.027551e+00 1.151580e-08 0
7.027551e+00 1.186188e-08 0
7.027551e+00 1.161422e-08 0
7.027551e+00 1.111402e-08 0
7.027551e+00 1.085880e-08 0
7.027551e+00 1.098578e-08 0
7.027551e+00 1.121838e-08 0
7.027551e+00 1.124748e-08 0
7.027551e+00 1.107783e-08 0
7.027551e+00 1.097398e-08 0
7.027551e+00 1.111034e-08 0
7.027551e+00 1.134182e-08 0
7.027551e+00 1.135365e-08 0
7.027551e+00 1.102080e-08 0
7.027551e+00 1.057789e-08 0
7.027551e+00 1.040243e-08 0
7.027551e+00 1.062566e-08 0
7.027551e+00 1.097868e-08 0
7.027551e+00 1.104503e-08 0
7.027551e+00 1.066972e-08 0
7.027551e+00 1.011602e-08 0
7.027551e+00 9.815302e-09 0
7.027551e+00 9.957550e-09 0
7.027551e+00 1.032380e-08 0
7.027551e+00 1.051448e-08 0
7.027551e+00 1.033397e-08 0
7.027551e+00 9.953481e-09 0
7.027551e+00 9.715686e-09 0
7.027551e+00 9.799018e-09 0
7.027551e+00 1.007030e-08 0
7.027551e+00 1.024183e-08 0
7.027551e+00 1.014974e-08 0
7.027551e+00 9.881345e-09 0
7.027551e+00 9.659153e-09 0
7.027551e+00 9.623439e-09 0
7.027551e+00 9.722951e-09 0
7.027551e+00 9.789005e-09 0
7.027551e+00 9.693275e-09 0
7.027551e+00 9.441772e-09 0
7.027551e+00 9.142119e-09 0
7.027551e+00 8.899168e-09 0
7.027551e+00 8.739313e-09 0
7.027551e+00 8.616199e-09 0
7.027551e+00 8.469867e-09 0
7.027551e+00 8.276079e-09 0
7.027551e+00 8.052404e-09 0
7.027551e+00 7.832568e-09 0
7.027551e+00 7.641181e-09 0
7.027551e+00 7.488165e-09 0
7.027551e+00 7.375395e-09 0
7.027551e+00 7.300200e-09 0
7.027551e+00 7.254264e-09 0
7.027551e+00 7.225389e-09 0
7.027551e+00 7.204557e-09 0
7.027551e+00 7.192469e-09 0
7.027551e+00 7.198255e-09 0
7.027551e+00 7.230887e-09 0
7.027551e+00 7.289852e-09 0
7.027551e+00 7.361742e-09 0
7.027551e+00 7.426983e-09 0
7.027551e+00 7.472086e-09 0
7.027551e+00 7.495890e-09 0
7.027551e+00 7.504965e-09 0
7.027551e+00 7.503643e-09 0
7.027551e+00 7.488682e-09 0
7.027551e+00 7.452747e-09 0
7.027551e+00 7.389931e-09 0
7.027551e+00 7.297542e-09 0
7.027551e+00 7.176240e-09 0
7.027551e+00 7.030084e-09 0
7.027551e+00 6.866323e-09 0
7.027551e+00 6.691832e-09 0
7.027551e+00 6.510095e-09 0
7.027551e+00 6.321743e-09 0
7.027551e+00 6.127053e-09 0
7.027551e+00 5.928092e-09 0
7.027551e+00 5.728010e-09 0
7.027551e+00 5.529623e-09 0
7.027551e+00 5.331802e-09 0
7.027551e+00 5.129862e-09 0
7.027551e+00 4.914194e-09 0
7.027551e+00 4.666754e-09 0
7.027551e+00 4.359739e-09 0
7.027551e+00 3.950838e-09 0
7.027551e+00 3.406801e-09 0
7.027551e+00 2.694849e-09 0
7.027551e+00 2.290647e-09 0
8.959373e+00 -6.100802e-09 0
8.959373e+00 -1.922245e-08 0
8.959372e+00 -4.003935e-08 0
8.959372e+00 -4.680127e-08 0
8.959372e+00 -3.804594e-08 0
8.959373e+00 -2.176425e-08 0
8.959373e+00 -8.781166e-09 0
8.959373e+00 -4.147942e-09 0
8.959372e+00 -5.731519e-09 0
8.959372e+00 -8.003082e-09 0
8.959372e+00 -6.813605e-09 0
8.959372e+00 -1.592900e-09 0
8.959372e+00 5.472300e-09 0
8.959372e+00 1.159634e-08 0
8.959372e+00 1.493314e-08 0
8.959372e+00 1.500641e-08 0
8.959372e+00 1.258922e-08 0
8.959372e+00 9.255481e-09 0
8.959372e+00 6.661545e-09 0
8.959372e+00 5.774603e-09 0
8.959372e+00 6.461576e-09 0
8.959373e+00 7.701263e-09 0
8.959373e+00 8.258508e-09 0
8.959373e+00 7.414564e-09 0
8.959373e+00 5.381609e-09 0
8.959373e+00 3.215259e-09 0
8.959373e+00 2.280603e-09 0
8.959373e+00 3.498750e-09 0
8.959373e+00 6.687369e-09 0
8.959373e+00 1.043624e-08 0
8.959373e+00 1.280991e-08 0
8.959373e+00 1.259628e-08 0
8.959373e+00 1.026591e-08 0
8.959373e+00 7.812531e-09 0
8.959373e+00 7.412695e-09 0
8.959373e+00 9.825127e-09 0
8.959373e+00 1.377196e-08 0
8.959373e+00 1.683352e-08 0
8.959373e+00 1.719307e-08 0
8.959373e+00 1.489700e-08 0
8.959372e+00 1.171199e-08 0
8.959372e+00 9.783481e-09 0
8.959372e+00 1.017512e-08 0
8.959373e+00 1.232692e-08 0
8.959373e+00 1.466108e-08 0
8.959373e+00 1.572586e-08 0
8.959372e+00 1.503373e-08 0
8.959372e+00 1.315543e-08 0
8.959372e+00 1.121536e-08 0
8.959372e+00 1.022817e-08 0
8.959372e+00 1.062860e-08 0
8.959372e+00 1.211715e-08 0
8.959372e+00 1.381735e-08 0
8.959372e+00 1.471426e-08 0
8.959372e+00 1.425306e-08 0
8.959372e+00 1.278050e-08 0
8.959372e+00 1.143369e-08 0
8.959372e+00 1.137788e-08 0
8.959372e+00 1.286680e-08 0
8.959372e+00 1.492377e-08 0
8.959372e+00 1.605447e-08 0
8.959372e+00 1.549241e-08 0
8.959372e+00 1.388344e-08 0
8.959372e+00 1.272520e-08 0
8.959372e+00 1.302184e-08 0
8.959372e+00 1.439747e-08 0
8.959372e+00 1.550085e-08 0
8.959372e+00 1.528927e-08 0
8.959372e+00 1.394411e-08 0
8.959372e+00 1.258432e-08 0
8.959372e+00 1.215218e-08 0
8.959372e+00 1.260365e-08 0
8.959372e+00 1.312406e-08 0
8.959372e+00 1.301854e-08 0