<?xml version="1.0"?>
<VTKFile type="StructuredGrid">
<StructuredGrid WholeExtent="0 158 0 30 0 0 ">
<Piece Extent="0 158 0 30 0 0 ">
<Points>
<DataArray type="Float64" format="ascii" NumberOfComponents="3">
0.000000e+00 0.000000e+00 0.000000e+00
3.164557e-02 0.000000e+00 0.000000e+00
6.329114e-02 0.000000e+00 0.000000e+00
9.493671e-02 0.000000e+00 0.000000e+00
1.265823e-01 0.000000e+00 0.000000e+00
1.582278e-01 0.000000e+00 0.000000e+00
1.898734e-01 0.000000e+00 0.000000e+00
2.215190e-01 0.000000e+00 0.000000e+00
2.531646e-01 0.000000e+00 0.000000e+00
2.848101e-01 0.000000e+00 0.000000e+00
3.164557e-01 0.000000e+00 0.000000e+00
3.481013e-01 0.000000e+00 0.000000e+00
3.797468e-01 0.000000e+00 0.000000e+00
4.113924e-01 0.000000e+00 0.000000e+00
4.430380e-01 0.000000e+00 0.000000e+00
4.746835e-01 0.000000e+00 0.000000e+00
5.063291e-01 0.000000e+00 0.000000e+00
5.379747e-01 0.000000e+00 0.000000e+00
5.696203e-01 0.000000e+00 0.000000e+00
6.012658e-01 0.000000e+00 0.000000e+00
6.329114e-01 0.000000e+00 0.000000e+00
6.645570e-01 0.000000e+00 0.000000e+00
6.962025e-01 0.000000e+00 0.000000e+00
7.278481e-01 0.000000e+00 0.000000e+00
7.594937e-01 0.000000e+00 0.000000e+00
7.911392e-01 0.000000e+00 0.000000e+00
8.227848e-01 0.000000e+00 0.000000e+00
8.544304e-01 0.000000e+00 0.000000e+00
8.860759e-01 0.000000e+00 0.000000e+00
9.177215e-01 0.000000e+00 0.000000e+00
9.493671e-01 0.000000e+00 0.000000e+00
9.810127e-01 0.000000e+00 0.000000e+00
1.012658e+00 0.000000e+00 0.000000e+00
1.044304e+00 0.000000e+00 0.000000e+00
1.075949e+00 0.000000e+00 0.000000e+00
1.107595e+00 0.000000e+00 0.000000e+00
1.139241e+00 0.000000e+00 0.000000e+00
1.170886e+00 0.000000e+00 0.000000e+00
1.202532e+00 0.000000e+00 0.000000e+00
1.234177e+00 0.000000e+00 0.000000e+00
1.265823e+00 0.000000e+00 0.000000e+00
1.297468e+00 0.000000e+00 0.000000e+00
1.329114e+00 0.000000e+00 0.000000e+00
1.360759e+00 0.000000e+00 0.000000e+00
1.392405e+00 0.000000e+00 0.000000e+00
1.424051e+00 0.000000e+00 0.000000e+00
1.455696e+00 0.000000e+00 0.000000e+00
1.487342e+00 0.000000e+00 0.000000e+00
1.518987e+00 0.000000e+00 0.000000e+00
1.550633e+00 0.000000e+00 0.000000e+00
1.582278e+00 0.000000e+00 0.000000e+00
1.613924e+00 0.000000e+00 0.000000e+00
1.645570e+00 0.000000e+00 0.000000e+00
1.677215e+00 0.000000e+00 0.000000e+00
1.708861e+00 0.000000e+00 0.000000e+00
1.740506e+00 0.000000e+00 0.000000e+00
1.772152e+00 0.000000e+00 0.000000e+00
1.803797e+00 0.000000e+00 0.000000e+00
1.835443e+00 0.000000e+00 0.000000e+00
1.867089e+00 0.000000e+00 0.000000e+00
1.898734e+00 0.000000e+00 0.000000e+00
1.930380e+00 0.000000e+00 0.000000e+00
1.962025e+00 0.000000e+00 0.000000e+00
1.993671e+00 0.000000e+00 0.000000e+00
2.025316e+00 0.000000e+00 0.000000e+00
2.056962e+00 0.000000e+00 0.000000e+00
2.088608e+00 0.000000e+00 0.000000e+00
2.120253e+00 0.000000e+00 0.000000e+00
2.151899e+00 0.000000e+00 0.000000e+00
2.183544e+00 0.000000e+00 0.000000e+00
2.215190e+00 0.000000e+00 0.000000e+00
2.246835e+00 0.000000e+00 0.000000e+00
2.278481e+00 0.000000e+00 0.000000e+00
2.310127e+00 0.000000e+00 0.000000e+00
2.341772e+00 0.000000e+00 0.000000e+00
2.373418e+00 0.000000e+00 0.000000e+00
2.405063e+00 0.000000e+00 0.000000e+00
2.436709e+00 0.000000e+00 0.000000e+00
2.468354e+00 0.000000e+00 0.000000e+00
2.500000e+00 0.000000e+00 0.000000e+00
2.531646e+00 0.000000e+00 0.000000e+00
2.563291e+00 0.000000e+00 0.000000e+00
2.594937e+00 0.000000e+00 0.000000e+00
2.626582e+00 0.000000e+00 0.000000e+00
2.658228e+00 0.000000e+00 0.000000e+00
2.689873e+00 0.000000e+00 0.000000e+00
2.721519e+00 0.000000e+00 0.000000e+00
2.753165e+00 0.000000e+00 0.000000e+00
2.784810e+00 0.000000e+00 0.000000e+00
2.816456e+00 0.000000e+00 0.000000e+00
2.848101e+00 0.000000e+00 0.000000e+00
2.879747e+00 0.000000e+00 0.000000e+00
2.911392e+00 0.000000e+00 0.000000e+00
2.943038e+00 0.000000e+00 0.000000e+00
2.974684e+00 0.000000e+00 0.000000e+00
3.006329e+00 0.000000e+00 0.000000e+00
3.037975e+00 0.000000e+00 0.000000e+00
3.069620e+00 0.000000e+00 0.000000e+00
3.101266e+00 0.000000e+00 0.000000e+00
3.132911e+00 0.000000e+00 0.000000e+00
3.164557e+00 0.000000e+00 0.000000e+00
3.196203e+00 0.000000e+00 0.000000e+00
3.227848e+00 0.000000e+00 0.000000e+00
3.259494e+00 0.000000e+00 0.000000e+00
3.291139e+00 0.000000e+00 0.000000e+00
3.322785e+00 0.000000e+00 0.000000e+00
3.354430e+00 0.000000e+00 0.000000e+00
3.386076e+00 0.000000e+00 0.000000e+00
3.417722e+00 0.000000e+00 0.000000e+00
3.449367e+00 0.000000e+00 0.000000e+00
3.481013e+00 0.000000e+00 0.000000e+00
3.512658e+00 0.000000e+00 0.000000e+00
3.544304e+00 0.000000e+00 0.000000e+00
3.575949e+00 0.000000e+00 0.000000e+00
3.607595e+00 0.000000e+00 0.000000e+00
3.639241e+00 0.000000e+00 0.000000e+00
3.670886e+00 0.000000e+00 0.000000e+00
3.702532e+00 0.000000e+00 0.000000e+00
3.734177e+00 0.000000e+00 0.000000e+00
3.765823e+00 0.000000e+00 0.000000e+00
3.797468e+00 0.000000e+00 0.000000e+00
3.829114e+00 0.000000e+00 0.000000e+00
3.860759e+00 0.000000e+00 0.000000e+00
3.892405e+00 0.000000e+00 0.000000e+00
3.924051e+00 0.000000e+00 0.000000e+00
3.955696e+00 0.000000e+00 0.000000e+00
3.987342e+00 0.000000e+00 0.000000e+00
4.018987e+00 0.000000e+00 0.000000e+00
4.050633e+00 0.000000e+00 0.000000e+00
4.082278e+00 0.000000e+00 0.000000e+00
4.113924e+00 0.000000e+00 0.000000e+00
4.145570e+00 0.000000e+00 0.000000e+00
4.177215e+00 0.000000e+00 0.000000e+00
4.208861e+00 0.000000e+00 0.000000e+00
4.240506e+00 0.000000e+00 0.000000e+00
4.272152e+00 0.000000e+00 0.000000e+00
4.303797e+00 0.000000e+00 0.000000e+00
4.335443e+00 0.000000e+00 0.000000e+00
4.367089e+00 0.000000e+00 0.000000e+00
4.398734e+00 0.000000e+00 0.000000e+00
4.430380e+00 0.000000e+00 0.000000e+00
4.462025e+00 0.000000e+00 0.000000e+00
4.493671e+00 0.000000e+00 0.000000e+00
4.525316e+00 0.000000e+00 0.000000e+00
4.556962e+00 0.000000e+00 0.000000e+00
4.588608e+00 0.000000e+00 0.000000e+00
4.620253e+00 0.000000e+00 0.000000e+00
4.651899e+00 0.000000e+00 0.000000e+00
4.683544e+00 0.000000e+00 0.000000e+00
4.715190e+00 0.000000e+00 0.000000e+00
4.746835e+00 0.000000e+00 0.000000e+00
4.778481e+00 0.000000e+00 0.000000e+00
4.810127e+00 0.000000e+00 0.000000e+00
4.841772e+00 0.000000e+00 0.000000e+00
4.873418e+00 0.000000e+00 0.000000e+00
4.905063e+00 0.000000e+00 0.000000e+00
4.936709e+00 0.000000e+00 0.000000e+00
4.968354e+00 0.000000e+00 0.000000e+00
5.000000e+00 0.000000e+00 0.000000e+00
0.000000e+00 3.333333e-02 0.000000e+00
3.164557e-02 3.333333e-02 0.000000e+00
6.329114e-02 3.333333e-02 0.000000e+00
9.493671e-02 3.333333e-02 0.000000e+00
1.265823e-01 3.333333e-02 0.000000e+00
1.582278e-01 3.333333e-02 0.000000e+00
1.898734e-01 3.333333e-02 0.000000e+00
2.215190e-01 3.333333e-02 0.000000e+00
2.531646e-01 3.333333e-02 0.000000e+00
2.848101e-01 3.333333e-02 0.000000e+00
3.164557e-01 3.333333e-02 0.000000e+00
3.481013e-01 3.333333e-02 0.000000e+00
3.797468e-01 3.333333e-02 0.000000e+00
4.113924e-01 3.333333e-02 0.000000e+00
4.430380e-01 3.333333e-02 0.000000e+00
4.746835e-01 3.333333e-02 0.000000e+00
5.063291e-01 3.333333e-02 0.000000e+00
5.379747e-01 3.333333e-02 0.000000e+00
5.696203e-01 3.333333e-02 0.000000e+00
6.012658e-01 3.333333e-02 0.000000e+00
6.329114e-01 3.333333e-02 0.000000e+00
6.645570e-01 3.333333e-02 0.000000e+00
6.962025e-01 3.333333e-02 0.000000e+00
7.278481e-01 3.333333e-02 0.000000e+00
7.594937e-01 3.333333e-02 0.000000e+00
7.911392e-01 3.333333e-02 0.000000e+00
8.227848e-01 3.333333e-02 0.000000e+00
8.544304e-01 3.333333e-02 0.000000e+00
8.860759e-01 3.333333e-02 0.000000e+00
9.177215e-01 3.333333e-02 0.000000e+00
9.493671e-01 3.333333e-02 0.000000e+00
9.810127e-01 3.333333e-02 0.000000e+00
1.012658e+00 3.333333e-02 0.000000e+00
1.044304e+00 3.333333e-02 0.000000e+00
1.075949e+00 3.333333e-02 0.000000e+00
1.107595e+00 3.333333e-02 0.000000e+00
1.139241e+00 3.333333e-02 0.000000e+00
1.170886e+00 3.333333e-02 0.000000e+00
1.202532e+00 3.333333e-02 0.000000e+00
1.234177e+00 3.333333e-02 0.000000e+00
1.265823e+00 3.333333e-02 0.000000e+00
1.297468e+00 3.333333e-02 0.000000e+00
1.329114e+00 3.333333e-02 0.000000e+00
1.360759e+00 3.333333e-02 0.000000e+00
1.392405e+00 3.333333e-02 0.000000e+00
1.424051e+00 3.333333e-02 0.000000e+00
1.455696e+00 3.333333e-02 0.000000e+00
1.487342e+00 3.333333e-02 0.000000e+00
1.518987e+00 3.333333e-02 0.000000e+00
1.550633e+00 3.333333e-02 0.000000e+00
1.582278e+00 3.333333e-02 0.000000e+00
1.613924e+00 3.333333e-02 0.000000e+00
1.645570e+00 3.333333e-02 0.000000e+00
1.677215e+00 3.333333e-02 0.000000e+00
1.708861e+00 3.333333e-02 0.000000e+00
1.740506e+00 3.333333e-02 0.000000e+00
1.772152e+00 3.333333e-02 0.000000e+00
1.803797e+00 3.333333e-02 0.000000e+00
1.835443e+00 3.333333e-02 0.000000e+00
1.867089e+00 3.333333e-02 0.000000e+00
1.898734e+00 3.333333e-02 0.000000e+00
1.930380e+00 3.333333e-02 0.000000e+00
1.962025e+00 3.333333e-02 0.000000e+00
1.993671e+00 3.333333e-02 0.000000e+00
2.025316e+00 3.333333e-02 0.000000e+00
2.056962e+00 3.333333e-02 0.000000e+00
2.088608e+00 3.333333e-02 0.000000e+00
2.120253e+00 3.333333e-02 0.000000e+00
2.151899e+00 3.333333e-02 0.000000e+00
2.183544e+00 3.333333e-02 0.000000e+00
2.215190e+00 3.333333e-02 0.000000e+00
2.246835e+00 3.333333e-02 0.000000e+00
2.278481e+00 3.333333e-02 0.000000e+00
2.310127e+00 3.333333e-02 0.000000e+00
2.341772e+00 3.333333e-02 0.000000e+00
2.373418e+00 3.333333e-02 0.000000e+00
2.405063e+00 3.333333e-02 0.000000e+00
2.436709e+00 3.333333e-02 0.000000e+00
2.468354e+00 3.333333e-02 0.000000e+00
2.500000e+00 3.333333e-02 0.000000e+00
2.531646e+00 3.333333e-02 0.000000e+00
2.563291e+00 3.333333e-02 0.000000e+00
2.594937e+00 3.333333e-02 0.000000e+00
2.626582e+00 3.333333e-02 0.000000e+00
2.658228e+00 3.333333e-02 0.000000e+00
2.689873e+00 3.333333e-02 0.000000e+00
2.721519e+00 3.333333e-02 0.000000e+00
2.753165e+00 3.333333e-02 0.000000e+00
2.784810e+00 3.333333e-02 0.000000e+00
2.816456e+00 3.333333e-02 0.000000e+00
2.848101e+00 3.333333e-02 0.000000e+00
2.879747e+00 3.333333e-02 0.000000e+00
[...]
<PointData>
<DataArray Name="Velocity" type="Float64" format="ascii" NumberOfComponents="3">
0.000000e+00 0.000000e+00 0
0.000000e+00 0.000000e+00 0
0.000000e+00 0.000000e+00 0
0.000000e+00 0.000000e+00 0
0.000000e+00 0.000000e+00 0
0.000000e+00 0.000000e+00 0
0.000000e+00 0.000000e+00 0
0.000000e+00 0.000000e+00 0
0.000000e+00 0.000000e+00 0
0.000000e+00 0.000000e+00 0
0.000000e+00 0.000000e+00 0
0.000000e+00 0.000000e+00 0
0.000000e+00 0.000000e+00 0
0.000000e+00 0.000000e+00 0
0.000000e+00 0.000000e+00 0
0.000000e+00 0.000000e+00 0
0.000000e+00 0.000000e+00 0
0.000000e+00 0.000000e+00 0
0.000000e+00 0.000000e+00 0
5.455705e-17 0.000000e+00 0
0.000000e+00 0.000000e+00 0
0.000000e+00 0.000000e+00 0
0.000000e+00 0.000000e+00 0
5.455700e-17 0.000000e+00 0
0.000000e+00 0.000000e+00 0
0.000000e+00 0.000000e+00 0
0.000000e+00 0.000000e+00 0
5.455695e-17 0.000000e+00 0
0.000000e+00 0.000000e+00 0
0.000000e+00 0.000000e+00 0
0.000000e+00 0.000000e+00 0
5.455690e-17 0.000000e+00 0
0.000000e+00 0.000000e+00 0
0.000000e+00 0.000000e+00 0
0.000000e+00 0.000000e+00 0
0.000000e+00 0.000000e+00 0
0.000000e+00 0.000000e+00 0
0.000000e+00 0.000000e+00 0
-1.908703e-18 0.000000e+00 0
0.000000e+00 0.000000e+00 0
0.000000e+00 0.000000e+00 0
0.000000e+00 0.000000e+00 0
0.000000e+00 0.000000e+00 0
0.000000e+00 0.000000e+00 0
0.000000e+00 0.000000e+00 0
0.000000e+00 0.000000e+00 0
-1.908907e-18 0.000000e+00 0
0.000000e+00 0.000000e+00 0
0.000000e+00 0.000000e+00 0
0.000000e+00 0.000000e+00 0
0.000000e+00 0.000000e+00 0
0.000000e+00 0.000000e+00 0
0.000000e+00 0.000000e+00 0
0.000000e+00 0.000000e+00 0
-1.909106e-18 0.000000e+00 0
0.000000e+00 0.000000e+00 0
0.000000e+00 0.000000e+00 0
0.000000e+00 0.000000e+00 0
0.000000e+00 0.000000e+00 0
0.000000e+00 0.000000e+00 0
0.000000e+00 0.000000e+00 0
0.000000e+00 0.000000e+00 0
-1.909297e-18 0.000000e+00 0
0.000000e+00 0.000000e+00 0
0.000000e+00 0.000000e+00 0
0.000000e+00 0.000000e+00 0
0.000000e+00 0.000000e+00 0
0.000000e+00 0.000000e+00 0
0.000000e+00 0.000000e+00 0
0.000000e+00 0.000000e+00 0
0.000000e+00 0.000000e+00 0
0.000000e+00 0.000000e+00 0
0.000000e+00 0.000000e+00 0
0.000000e+00 0.000000e+00 0
0.000000e+00 0.000000e+00 0
0.000000e+00 0.000000e+00 0
0.000000e+00 0.000000e+00 0
0.000000e+00 0.000000e+00 0
0.000000e+00 0.000000e+00 0
0.000000e+00 0.000000e+00 0
0.000000e+00 0.000000e+00 0
0.000000e+00 0.000000e+00 0
0.000000e+00 0.000000e+00 0
0.000000e+00 0.000000e+00 0
0.000000e+00 0.000000e+00 0
0.000000e+00 0.000000e+00 0
0.000000e+00 0.000000e+00 0
0.000000e+00 0.000000e+00 0
0.000000e+00 0.000000e+00 0
0.000000e+00 0.000000e+00 0
0.000000e+00 0.000000e+00 0
0.000000e+00 0.000000e+00 0
0.000000e+00 0.000000e+00 0
0.000000e+00 0.000000e+00 0
0.000000e+00 0.000000e+00 0
0.000000e+00 0.000000e+00 0
0.000000e+00 0.000000e+00 0
0.000000e+00 0.000000e+00 0
0.000000e+00 0.000000e+00 0
0.000000e+00 0.000000e+00 0
0.000000e+00 0.000000e+00 0
0.000000e+00 0.000000e+00 0
0.000000e+00 0.000000e+00 0
0.000000e+00 0.000000e+00 0
0.000000e+00 0.000000e+00 0
0.000000e+00 0.000000e+00 0
0.000000e+00 0.000000e+00 0
0.000000e+00 0.000000e+00 0
0.000000e+00 0.000000e+00 0
0.000000e+00 0.000000e+00 0
0.000000e+00 0.000000e+00 0
0.000000e+00 0.000000e+00 0
0.000000e+00 0.000000e+00 0
0.000000e+00 0.000000e+00 0
0.000000e+00 0.000000e+00 0
0.000000e+00 0.000000e+00 0
0.000000e+00 0.000000e+00 0
0.000000e+00 0.000000e+00 0
0.000000e+00 0.000000e+00 0
0.000000e+00 0.000000e+00 0
0.000000e+00 0.000000e+00 0
0.000000e+00 0.000000e+00 0
0.000000e+00 0.000000e+00 0
0.000000e+00 0.000000e+00 0
0.000000e+00 0.000000e+00 0
0.000000e+00 0.000000e+00 0
0.000000e+00 0.000000e+00 0
0.000000e+00 0.000000e+00 0
0.000000e+00 0.000000e+00 0
0.000000e+00 0.000000e+00 0
0.000000e+00 0.000000e+00 0
0.000000e+00 0.000000e+00 0
0.000000e+00 0.000000e+00 0
0.000000e+00 0.000000e+00 0
0.000000e+00 0.000000e+00 0
0.000000e+00 0.000000e+00 0
0.000000e+00 0.000000e+00 0
0.000000e+00 0.000000e+00 0
0.000000e+00 0.000000e+00 0
0.000000e+00 0.000000e+00 0
0.000000e+00 0.000000e+00 0
0.000000e+00 0.000000e+00 0
0.000000e+00 0.000000e+00 0
0.000000e+00 0.000000e+00 0
0.000000e+00 0.000000e+00 0
0.000000e+00 0.000000e+00 0
0.000000e+00 0.000000e+00 0
0.000000e+00 0.000000e+00 0
0.000000e+00 0.000000e+00 0
0.000000e+00 0.000000e+00 0
0.000000e+00 0.000000e+00 0
0.000000e+00 0.000000e+00 0
0.000000e+00 0.000000e+00 0
0.000000e+00 0.000000e+00 0
0.000000e+00 0.000000e+00 0
0.000000e+00 0.000000e+00 0
0.000000e+00 0.000000e+00 0
0.000000e+00 0.000000e+00 0
0.000000e+00 0.000000e+00 0
2.951057e+00 7.909221e-09 0
2.951057e+00 1.541690e-08 0
2.951057e+00 2.218825e-08 0
2.951057e+00 1.583367e-08 0
2.951057e+00 6.003053e-09 0
2.951057e+00 2.428367e-09 0
2.951057e+00 7.997036e-09 0
2.951057e+00 1.822154e-08 0
2.951057e+00 2.563059e-08 0
2.951057e+00 2.590718e-08 0
2.951057e+00 2.042890e-08 0
2.951057e+00 1.440485e-08 0
2.951057e+00 1.194650e-08 0
2.951057e+00 1.311382e-08 0
2.951057e+00 1.514175e-08 0
2.951057e+00 1.514324e-08 0
2.951057e+00 1.258564e-08 0
2.951057e+00 9.420624e-09 0
2.951057e+00 7.834393e-09 0
2.951057e+00 8.380041e-09 0
2.951057e+00 9.793858e-09 0
2.951057e+00 1.026427e-08 0
2.951057e+00 8.958561e-09 0
2.951057e+00 6.565989e-09 0
2.951057e+00 4.608732e-09 0
2.951057e+00 4.211739e-09 0
2.951057e+00 5.345898e-09 0
2.951057e+00 7.031363e-09 0
2.951057e+00 8.170008e-09 0
2.951057e+00 8.288186e-09 0
2.951057e+00 7.692930e-09 0
2.951057e+00 7.069798e-09 0
2.951057e+00 6.932549e-09 0
2.951057e+00 7.334981e-09 0
2.951057e+00 7.966623e-09 0
2.951057e+00 8.456398e-09 0
2.951057e+00 8.617250e-09 0
2.951057e+00 8.488733e-09 0
2.951057e+00 8.222199e-09 0
2.951057e+00 7.947915e-09 0
2.951057e+00 7.723681e-09 0
2.951057e+00 7.562655e-09 0
2.951057e+00 7.474135e-09 0
2.951057e+00 7.466076e-09 0
2.951057e+00 7.517117e-09 0
2.951057e+00 7.564094e-09 0
2.951057e+00 7.534836e-09 0
2.951057e+00 7.406419e-09 0
2.951057e+00 7.236297e-09 0
2.951057e+00 7.130872e-09 0
2.951057e+00 7.169447e-09 0
2.951057e+00 7.343072e-09 0
2.951057e+00 7.558061e-09 0
2.951057e+00 7.700250e-09 0
2.951057e+00 7.706833e-09 0
2.951057e+00 7.592125e-09 0
2.951057e+00 7.418726e-09 0
2.951057e+00 7.249779e-09 0
2.951057e+00 7.121496e-09 0
2.951057e+00 7.043196e-09 0
2.951057e+00 7.005591e-09 0
2.951057e+00 6.983803e-09 0
2.951057e+00 6.943328e-09 0
2.951057e+00 6.860427e-09 0
2.951057e+00 6.746566e-09 0
2.951057e+00 6.650550e-09 0
2.951057e+00 6.628529e-09 0
2.951057e+00 6.704843e-09 0
2.951057e+00 6.856704e-09 0
2.951057e+00 7.030021e-09 0
2.951057e+00 7.165339e-09 0
2.951057e+00 7.216669e-09 0
2.951057e+00 7.168407e-09 0
2.951057e+00 7.056870e-09 0
2.951057e+00 6.974471e-09 0
2.951057e+00 7.021680e-09 0
2.951057e+00 7.218679e-09 0
2.951057e+00 7.455151e-09 0
2.951057e+00 7.551612e-09 0
2.951057e+00 7.405817e-09 0
2.951057e+00 7.097149e-09 0
2.951057e+00 6.839199e-09 0
2.951057e+00 6.809352e-09 0
2.951057e+00 7.006781e-09 0
2.951057e+00 7.265144e-09 0
2.951057e+00 7.398712e-09 0
2.951057e+00 7.343340e-09 0
2.951057e+00 7.178623e-09 0
2.951057e+00 7.041727e-09 0
2.951057e+00 7.029334e-09 0
2.951057e+00 7.158563e-09 0
2.951057e+00 7.379423e-09 0
2.951057e+00 7.600764e-09 0
2.951057e+00 7.723104e-09 0
2.951057e+00 7.692497e-09 0
2.951057e+00 7.553762e-09 0
2.951057e+00 7.441386e-09 0
2.951057e+00 7.482211e-09 0
2.951057e+00 7.680428e-09 0
2.951057e+00 7.898911e-09 0
2.951057e+00 7.970136e-09 0
2.951057e+00 7.839024e-09 0
2.951057e+00 7.603332e-09 0
2.951057e+00 7.420230e-09 0
2.951057e+00 7.375965e-09 0
2.951057e+00 7.434497e-09 0
2.951057e+00 7.489802e-09 0
2.951057e+00 7.454919e-09 0
2.951057e+00 7.315448e-09 0
2.951057e+00 7.128489e-09 0
2.951057e+00 6.982798e-09 0
2.951057e+00 6.940886e-09 0
2.951057e+00 6.991442e-09 0
2.951057e+00 7.049729e-09 0
2.951057e+00 7.018338e-09 0
2.951057e+00 6.867398e-09 0
2.951057e+00 6.661362e-09 0
2.951057e+00 6.501773e-09 0
2.951057e+00 6.441876e-09 0
2.951057e+00 6.450727e-09 0
2.951057e+00 6.448560e-09 0
2.951057e+00 6.371326e-09 0
2.951057e+00 6.209541e-09 0
2.951057e+00 6.003295e-09 0
2.951057e+00 5.808728e-09 0
2.951057e+00 5.660992e-09 0
2.951057e+00 5.556004e-09 0
2.951057e+00 5.462374e-09 0
2.951057e+00 5.353907e-09 0
2.951057e+00 5.232806e-09 0
2.951057e+00 5.120101e-09 0
2.951057e+00 5.028210e-09 0
2.951057e+00 4.949835e-09 0
2.951057e+00 4.874436e-09 0
2.951057e+00 4.807813e-09 0
2.951057e+00 4.767544e-09 0
2.951057e+00 4.762744e-09 0
2.951057e+00 4.783009e-09 0
2.951057e+00 4.807496e-09 0
2.951057e+00 4.823081e-09 0
2.951057e+00 4.831230e-09 0
2.951057e+00 4.839911e-09 0
2.951057e+00 4.853599e-09 0
2.951057e+00 4.867135e-09 0
2.951057e+00 4.871776e-09 0
2.951057e+00 4.864281e-09 0
2.951057e+00 4.847770e-09 0
2.951057e+00 4.829194e-09 0
2.951057e+00 4.817425e-09 0
2.951057e+00 4.820044e-09 0
2.951057e+00 4.840000e-09 0
2.951057e+00 4.875547e-09 0
2.951057e+00 4.920018e-09 0
2.951057e+00 4.960328e-09 0
2.951057e+00 4.968662e-09 0
2.951057e+00 4.879320e-09 0
2.951057e+00 4.511288e-09 0
2.951057e+00 2.641741e-09 0
2.951057e+00 1.059484e-09 0
5.682863e+00 6.141935e-09 0
5.682863e+00 1.084012e-08 0
5.682863e+00 1.235455e-08 0
5.682863e+00 3.250064e-09 0
5.682863e+00 -4.531108e-09 0
5.682863e+00 -2.113531e-09 0
5.682863e+00 9.034094e-09 0
5.682863e+00 2.061384e-08 0
5.682863e+00 2.558963e-08 0
5.682863e+00 2.300246e-08 0
5.682863e+00 1.765369e-08 0
5.682863e+00 1.509855e-08 0
5.682863e+00 1.686022e-08 0
5.682863e+00 2.022382e-08 0
5.682863e+00 2.135731e-08 0
5.682863e+00 1.871361e-08 0
5.682863e+00 1.408902e-08 0
5.682863e+00 1.067535e-08 0
5.682863e+00 1.020479e-08 0
5.682863e+00 1.179001e-08 0
5.682863e+00 1.300922e-08 0
5.682863e+00 1.206732e-08 0
5.682863e+00 9.131622e-09 0
5.682863e+00 5.956060e-09 0
5.682863e+00 4.375429e-09 0
5.682863e+00 4.987362e-09 0
5.682863e+00 6.935813e-09 0
5.682863e+00 8.745075e-09 0
5.682863e+00 9.416740e-09 0
5.682863e+00 8.967874e-09 0
5.682863e+00 8.158908e-09 0
5.682863e+00 7.789757e-09 0
5.682863e+00 8.151732e-09 0
5.682863e+00 8.967156e-09 0
5.682863e+00 9.725606e-09 0
5.682863e+00 1.007681e-08 0
5.682863e+00 9.997063e-09 0
5.682863e+00 9.686865e-09 0
5.682863e+00 9.358790e-09 0
5.682863e+00 9.102317e-09 0
5.682863e+00 8.894906e-09 0
5.682863e+00 8.695197e-09 0
5.682863e+00 8.509818e-09 0
5.682863e+00 8.380105e-09 0
5.682863e+00 8.321027e-09 0
5.682863e+00 8.285072e-09 0
5.682863e+00 8.192893e-09 0
5.682863e+00 8.005405e-09 0
5.682863e+00 7.770018e-09 0
5.682863e+00 7.593709e-09 0
5.682863e+00 7.559918e-09 0
5.682863e+00 7.657823e-09 0
5.682863e+00 7.784114e-09 0
5.682863e+00 7.815549e-09 0
5.682863e+00 7.691643e-09 0
5.682863e+00 7.443810e-09 0
5.682863e+00 7.158506e-09 0
5.682863e+00 6.915579e-09 0
5.682863e+00 6.751102e-09 0
5.682863e+00 6.659257e-09 0
5.682863e+00 6.613470e-09 0
5.682863e+00 6.584686e-09 0
5.682863e+00 6.553466e-09 0
5.682863e+00 6.521139e-09 0
5.682863e+00 6.515645e-09 0
5.682863e+00 6.580830e-09 0
5.682863e+00 6.749898e-09 0
5.682863e+00 7.021703e-09 0
5.682863e+00 7.357770e-09 0
5.682863e+00 7.697983e-09 0
5.682863e+00 7.980294e-09 0
5.682863e+00 8.159230e-09 0
5.682863e+00 8.229159e-09 0
5.682863e+00 8.244051e-09 0
5.682863e+00 8.301525e-09 0
5.682863e+00 8.473807e-09 0
5.682863e+00 8.728661e-09 0
5.682863e+00 8.923546e-09 0
5.682863e+00 8.908494e-09 0
5.682863e+00 8.663154e-09 0
5.682863e+00 8.337718e-09 0
5.682863e+00 8.144326e-09 0
5.682863e+00 8.188549e-09 0
5.682863e+00 8.392357e-09 0
5.682863e+00 8.573598e-09 0
5.682863e+00 8.600538e-09 0
5.682863e+00 8.481899e-09 0
5.682863e+00 8.332168e-09 0
5.682863e+00 8.270779e-09 0
5.682863e+00 8.349835e-09 0
5.682863e+00 8.545646e-09 0
5.682863e+00 8.784273e-09 0
5.682863e+00 8.970947e-09 0
5.682863e+00 9.028534e-09 0
5.682863e+00 8.949013e-09 0
5.682863e+00 8.818745e-09 0
5.682863e+00 8.768014e-09 0
5.682863e+00 8.862413e-09 0
5.682863e+00 9.032152e-09 0
5.682863e+00 9.120182e-09 0
5.682863e+00 9.015738e-09 0
5.682863e+00 8.747953e-09 0
5.682863e+00 8.452617e-09 0
5.682863e+00 8.251932e-09 0
5.682863e+00 8.163843e-09 0
5.682863e+00 8.111081e-09 0
5.682863e+00 7.998080e-09 0
5.682863e+00 7.780515e-09 0
5.682863e+00 7.486584e-09 0
5.682863e+00 7.194413e-09 0
5.682863e+00 6.983754e-09 0
5.682863e+00 6.881436e-09 0
5.682863e+00 6.834229e-09 0
5.682863e+00 6.742277e-09 0
5.682863e+00 6.540979e-09 0
5.682863e+00 6.260515e-09 0
5.682863e+00 6.000044e-09 0
5.682863e+00 5.840094e-09 0
5.682863e+00 5.777140e-09 0
5.682863e+00 5.737721e-09 0
5.682863e+00 5.647535e-09 0
5.682863e+00 5.483673e-09 0
5.682863e+00 5.274492e-09 0
5.682863e+00 5.067224e-09 0
5.682863e+00 4.896773e-09 0
5.682863e+00 4.770950e-09 0
5.682863e+00 4.672627e-09 0
5.682863e+00 4.576480e-09 0
5.682863e+00 4.470002e-09 0
5.682863e+00 4.360461e-09 0
5.682863e+00 4.261821e-09 0
5.682863e+00 4.178358e-09 0
5.682863e+00 4.105968e-09 0
5.682863e+00 4.046814e-09 0
5.682863e+00 4.012847e-09 0
5.682863e+00 4.012551e-09 0
5.682863e+00 4.039658e-09 0
5.682863e+00 4.076261e-09 0
5.682863e+00 4.107366e-09 0
5.682863e+00 4.129806e-09 0
5.682863e+00 4.147456e-09 0
5.682863e+00 4.162234e-09 0
5.682863e+00 4.166453e-09 0
5.682863e+00 4.148807e-09 0
5.682863e+00 4.103562e-09 0
5.682863e+00 4.034602e-09 0
5.682863e+00 3.954654e-09 0
5.682863e+00 3.880124e-09 0
5.682863e+00 3.827322e-09 0
5.682863e+00 3.807141e-09 0
5.682863e+00 3.824112e-09 0
5.682863e+00 3.875059e-09 0
5.682863e+00 3.945849e-09 0
5.682863e+00 4.009511e-09 0
5.682863e+00 4.019072e-09 0
5.682863e+00 3.888062e-09 0
5.682863e+00 3.445556e-09 0
5.682863e+00 2.301917e-09 0
5.682863e+00 1.486031e-09 0
8.198361e+00 3.434694e-09 0
8.198361e+00 2.022666e-09 0
8.198361e+00 -5.838766e-09 0
8.198361e+00 -1.686463e-08 0
8.198361e+00 -1.871394e-08 0
8.198361e+00 -7.874917e-09 0
8.198361e+00 7.849396e-09 0
8.198361e+00 1.798237e-08 0
8.198361e+00 1.798391e-08 0
8.198361e+00 1.213400e-08 0
8.198361e+00 8.571053e-09 0
8.198361e+00 1.156430e-08 0
8.198361e+00 1.871569e-08 0
8.198361e+00 2.412693e-08 0
8.198361e+00 2.374048e-08 0
8.198361e+00 1.844702e-08 0
8.198361e+00 1.261415e-08 0
8.198361e+00 1.017110e-08 0
8.198361e+00 1.174076e-08 0
8.198361e+00 1.463332e-08 0
8.198361e+00 1.545953e-08 0
8.198361e+00 1.286761e-08 0
8.198361e+00 8.267913e-09 0
8.198361e+00 4.408334e-09 0
8.198361e+00 3.253359e-09 0
8.198361e+00 4.771189e-09 0
8.198361e+00 7.317756e-09 0
8.198361e+00 9.041748e-09 0
8.198361e+00 9.133072e-09 0
8.198361e+00 8.097509e-09 0
8.198361e+00 7.097205e-09 0
8.198361e+00 7.014907e-09 0
8.198361e+00 7.930122e-09 0
8.198361e+00 9.254622e-09 0
8.198361e+00 1.027086e-08 0
8.198361e+00 1.061161e-08 0
8.198361e+00 1.038049e-08 0
8.198361e+00 9.936828e-09 0
8.198361e+00 9.588213e-09 0
8.198361e+00 9.425304e-09 0
8.198361e+00 9.364129e-09 0
8.198361e+00 9.293693e-09 0
8.198361e+00 9.180740e-09 0
8.198361e+00 9.061281e-09 0
8.198361e+00 8.962250e-09 0
8.198361e+00 8.849618e-09 0
8.198361e+00 8.658182e-09 0
8.198361e+00 8.370125e-09 0
8.198361e+00 8.057753e-09 0
8.198361e+00 7.838213e-09 0
8.198361e+00 7.774089e-09 0
8.198361e+00 7.810674e-09 0
8.198361e+00 7.811227e-09 0
8.198361e+00 7.661891e-09 0
8.198361e+00 7.354914e-09 0
8.198361e+00 6.982545e-09 0
8.198361e+00 6.657822e-09 0
8.198361e+00 6.438266e-09 0
8.198361e+00 6.311073e-09 0
8.198361e+00 6.232381e-09 0
8.198361e+00 6.170718e-09 0
8.198361e+00 6.120145e-09 0
8.198361e+00 6.090329e-09 0
8.198361e+00 6.098173e-09 0
8.198361e+00 6.168162e-09 0
8.198361e+00 6.328644e-09 0
8.198361e+00 6.596148e-09 0
8.198361e+00 6.958576e-09 0
8.198361e+00 7.372311e-09 0
8.198361e+00 7.774449e-09 0
8.198361e+00 8.102236e-09 0
8.198361e+00 8.317473e-09 0
8.198361e+00 8.433588e-09 0
8.198361e+00 8.523948e-09 0
8.198361e+00 8.681681e-09 0
8.198361e+00 8.938797e-09 0
8.198361e+00 9.211451e-09 0
8.198361e+00 9.343121e-09 0
8.198361e+00 9.233366e-09 0
8.198361e+00 8.942073e-09 0
8.198361e+00 8.661754e-09 0
8.198361e+00 8.568961e-09 0
8.198361e+00 8.685987e-09 0
8.198361e+00 8.877672e-09 0
8.198361e+00 8.977728e-09 0
8.198361e+00 8.921519e-09 0
8.198361e+00 8.774357e-09 0
8.198361e+00 8.656618e-09 0
8.198361e+00 8.652901e-09 0
8.198361e+00 8.775163e-09 0
8.198361e+00 8.975973e-09 0
8.198361e+00 9.173983e-09 0
8.198361e+00 9.281924e-09 0
8.198361e+00 9.251393e-09 0
8.198361e+00 9.118812e-09 0
8.198361e+00 8.998045e-09 0
8.198361e+00 8.994830e-09 0
8.198361e+00 9.106375e-09 0
8.198361e+00 9.209179e-09 0
8.198361e+00 9.161975e-09 0
8.198361e+00 8.930156e-09 0
8.198361e+00 8.610866e-09 0
8.198361e+00 8.340077e-09 0
8.198361e+00 8.179331e-09 0
8.198361e+00 8.084207e-09 0
8.198361e+00 7.961766e-09 0
8.198361e+00 7.747310e-09 0
8.198361e+00 7.441677e-09 0
8.198361e+00 7.103365e-09 0
8.198361e+00 6.813610e-09 0
8.198361e+00 6.626503e-09 0
8.198361e+00 6.524700e-09 0
8.198361e+00 6.421330e-09 0
8.198361e+00 6.227203e-09 0
8.198361e+00 5.932823e-09 0
8.198361e+00 5.621725e-09 0
8.198361e+00 5.395358e-09 0
8.198361e+00 5.281935e-09 0
8.198361e+00 5.220509e-09 0
8.198361e+00 5.127256e-09 0
8.198361e+00 4.964800e-09 0
8.198361e+00 4.753203e-09 0
8.198361e+00 4.535307e-09 0
8.198361e+00 4.343241e-09 0
8.198361e+00 4.188993e-09 0
8.198361e+00 4.067631e-09 0
8.198361e+00 3.962114e-09 0
8.198361e+00 3.853066e-09 0
8.198361e+00 3.732737e-09 0
8.198361e+00 3.609115e-09 0
8.198361e+00 3.494620e-09 0
8.198361e+00 3.395748e-09 0
8.198361e+00 3.316372e-09 0
8.198361e+00 3.263950e-09 0
8.198361e+00 3.244470e-09 0
8.198361e+00 3.254123e-09 0
8.198361e+00 3.280430e-09 0
8.198361e+00 3.311729e-09 0
8.198361e+00 3.344393e-09 0
8.198361e+00 3.379019e-09 0
8.198361e+00 3.410511e-09 0
8.198361e+00 3.422792e-09 0
8.198361e+00 3.395152e-09 0
8.198361e+00 3.311954e-09 0
8.198361e+00 3.170435e-09 0
8.198361e+00 2.983902e-09 0
8.198361e+00 2.773762e-09 0
8.198361e+00 2.566363e-09 0
8.198361e+00 2.388069e-09 0
8.198361e+00 2.260530e-09 0
8.198361e+00 2.197228e-09 0
8.198361e+00 2.196444e-09 0
8.198361e+00 2.239189e-09 0
8.198361e+00 2.292447e-09 0
8.198361e+00 2.309600e-09 0
8.198361e+00 2.230169e-09 0
8.198361e+00 2.003348e-09 0
8.198361e+00 1.577788e-09 0
8.198361e+00 1.307033e-09 0
1.050042e+01 -1.983651e-09 0
1.050042e+01 -1.090158e-08 0
1.050042e+01 -2.842263e-08 0
1.050042e+01 -3.798579e-08 0
1.050042e+01 -3.047198e-08 0
1.050042e+01 -1.096696e-08 0
1.050042e+01 5.985380e-09 0
1.050042e+01 1.043464e-08 0
1.050042e+01 4.190612e-09 0
1.050042e+01 -2.620343e-09 0
1.050042e+01 -1.332415e-09 0
1.050042e+01 8.440263e-09 0
1.050042e+01 1.980408e-08 0
1.050042e+01 2.512167e-08 0
1.050042e+01 2.216430e-08 0
1.050042e+01 1.497179e-08 0
1.050042e+01 9.767402e-09 0
1.050042e+01 9.885247e-09 0
1.050042e+01 1.373912e-08 0
1.050042e+01 1.695610e-08 0
1.050042e+01 1.623061e-08 0
1.050042e+01 1.161292e-08 0
1.050042e+01 5.939810e-09 0
1.050042e+01 2.417725e-09 0
1.050042e+01 2.380110e-09 0
1.050042e+01 4.784778e-09 0
1.050042e+01 7.399489e-09 0
1.050042e+01 8.498332e-09 0
1.050042e+01 7.832983e-09 0
1.050042e+01 6.423383e-09 0
1.050042e+01 5.574387e-09 0
1.050042e+01 5.951046e-09 0
1.050042e+01 7.299318e-09 0
1.050042e+01 8.827453e-09 0
1.050042e+01 9.826968e-09 0
1.050042e+01 1.006901e-08 0
1.050042e+01 9.787303e-09 0
1.050042e+01 9.383204e-09 0
1.050042e+01 9.130096e-09 0
1.050042e+01 9.069064e-09 0
1.050042e+01 9.096922e-09 0
1.050042e+01 9.112461e-09 0
1.050042e+01 9.087553e-09 0
1.050042e+01 9.032186e-09 0
1.050042e+01 8.925743e-09 0
1.050042e+01 8.706101e-09 0
1.050042e+01 8.336287e-09 0
1.050042e+01 7.878010e-09 0
1.050042e+01 7.481976e-09 0
1.050042e+01 7.281147e-09 0
1.050042e+01 7.274783e-09 0
1.050042e+01 7.314595e-09 0
1.050042e+01 7.217110e-09 0
1.050042e+01 6.908114e-09 0
1.050042e+01 6.473030e-09 0
1.050042e+01 6.075044e-09 0
1.050042e+01 5.823432e-09 0
1.050042e+01 5.709534e-09 0
1.050042e+01 5.650546e-09 0
1.050042e+01 5.578986e-09 0
1.050042e+01 5.489961e-09 0
1.050042e+01 5.420088e-09 0
1.050042e+01 5.402573e-09 0
1.050042e+01 5.450277e-09 0
1.050042e+01 5.570797e-09 0
1.050042e+01 5.779751e-09 0
1.050042e+01 6.090156e-09 0
1.050042e+01 6.490389e-09 0
1.050042e+01 6.934898e-09 0
1.050042e+01 7.356219e-09 0
1.050042e+01 7.692177e-09 0
1.050042e+01 7.919795e-09 0
1.050042e+01 8.079755e-09 0
1.050042e+01 8.262775e-09 0