<?xml version="1.0"?>
<VTKFile type="StructuredGrid">
<StructuredGrid WholeExtent="0 158 0 30 0 0 ">
<Piece Extent="0 158 0 30 0 0 ">
<Points>
<DataArray type="Float64" format="ascii" NumberOfComponents="3">
0.000000e+00 0.000000e+00 0.000000e+00
3.164557e-02 0.000000e+00 0.000000e+00
6.329114e-02 0.000000e+00 0.000000e+00
9.493671e-02 0.000000e+00 0.000000e+00
1.265823e-01 0.000000e+00 0.000000e+00
1.582278e-01 0.000000e+00 0.000000e+00
1.898734e-01 0.000000e+00 0.000000e+00
2.215190e-01 0.000000e+00 0.000000e+00
2.531646e-01 0.000000e+00 0.000000e+00
2.848101e-01 0.000000e+00 0.000000e+00
3.164557e-01 0.000000e+00 0.000000e+00
3.481013e-01 0.000000e+00 0.000000e+00
3.797468e-01 0.000000e+00 0.000000e+00
4.113924e-01 0.000000e+00 0.000000e+00
4.430380e-01 0.000000e+00 0.000000e+00
4.746835e-01 0.000000e+00 0.000000e+00
5.063291e-01 0.000000e+00 0.000000e+00
5.379747e-01 0.000000e+00 0.000000e+00
5.696203e-01 0.000000e+00 0.000000e+00
6.012658e-01 0.000000e+00 0.000000e+00
6.329114e-01 0.000000e+00 0.000000e+00
6.645570e-01 0.000000e+00 0.000000e+00
6.962025e-01 0.000000e+00 0.000000e+00
7.278481e-01 0.000000e+00 0.000000e+00
7.594937e-01 0.000000e+00 0.000000e+00
7.911392e-01 0.000000e+00 0.000000e+00
8.227848e-01 0.000000e+00 0.000000e+00
8.544304e-01 0.000000e+00 0.000000e+00
8.860759e-01 0.000000e+00 0.000000e+00
9.177215e-01 0.000000e+00 0.000000e+00
9.493671e-01 0.000000e+00 0.000000e+00
9.810127e-01 0.000000e+00 0.000000e+00
1.012658e+00 0.000000e+00 0.000000e+00
1.044304e+00 0.000000e+00 0.000000e+00
1.075949e+00 0.000000e+00 0.000000e+00
1.107595e+00 0.000000e+00 0.000000e+00
1.139241e+00 0.000000e+00 0.000000e+00
1.170886e+00 0.000000e+00 0.000000e+00
1.202532e+00 0.000000e+00 0.000000e+00
1.234177e+00 0.000000e+00 0.000000e+00
1.265823e+00 0.000000e+00 0.000000e+00
1.297468e+00 0.000000e+00 0.000000e+00
1.329114e+00 0.000000e+00 0.000000e+00
1.360759e+00 0.000000e+00 0.000000e+00
1.392405e+00 0.000000e+00 0.000000e+00
1.424051e+00 0.000000e+00 0.000000e+00
1.455696e+00 0.000000e+00 0.000000e+00
1.487342e+00 0.000000e+00 0.000000e+00
1.518987e+00 0.000000e+00 0.000000e+00
1.550633e+00 0.000000e+00 0.000000e+00
1.582278e+00 0.000000e+00 0.000000e+00
1.613924e+00 0.000000e+00 0.000000e+00
1.645570e+00 0.000000e+00 0.000000e+00
1.677215e+00 0.000000e+00 0.000000e+00
1.708861e+00 0.000000e+00 0.000000e+00
1.740506e+00 0.000000e+00 0.000000e+00
1.772152e+00 0.000000e+00 0.000000e+00
1.803797e+00 0.000000e+00 0.000000e+00
1.835443e+00 0.000000e+00 0.000000e+00
1.867089e+00 0.000000e+00 0.000000e+00
1.898734e+00 0.000000e+00 0.000000e+00
1.930380e+00 0.000000e+00 0.000000e+00
1.962025e+00 0.000000e+00 0.000000e+00
1.993671e+00 0.000000e+00 0.000000e+00
2.025316e+00 0.000000e+00 0.000000e+00
2.056962e+00 0.000000e+00 0.000000e+00
2.088608e+00 0.000000e+00 0.000000e+00
2.120253e+00 0.000000e+00 0.000000e+00
2.151899e+00 0.000000e+00 0.000000e+00
2.183544e+00 0.000000e+00 0.000000e+00
2.215190e+00 0.000000e+00 0.000000e+00
2.246835e+00 0.000000e+00 0.000000e+00
2.278481e+00 0.000000e+00 0.000000e+00
2.310127e+00 0.000000e+00 0.000000e+00
2.341772e+00 0.000000e+00 0.000000e+00
2.373418e+00 0.000000e+00 0.000000e+00
2.405063e+00 0.000000e+00 0.000000e+00
2.436709e+00 0.000000e+00 0.000000e+00
2.468354e+00 0.000000e+00 0.000000e+00
2.500000e+00 0.000000e+00 0.000000e+00
2.531646e+00 0.000000e+00 0.000000e+00
2.563291e+00 0.000000e+00 0.000000e+00
2.594937e+00 0.000000e+00 0.000000e+00
2.626582e+00 0.000000e+00 0.000000e+00
2.658228e+00 0.000000e+00 0.000000e+00
2.689873e+00 0.000000e+00 0.000000e+00
2.721519e+00 0.000000e+00 0.000000e+00
2.753165e+00 0.000000e+00 0.000000e+00
2.784810e+00 0.000000e+00 0.000000e+00
2.816456e+00 0.000000e+00 0.000000e+00
2.848101e+00 0.000000e+00 0.000000e+00
2.879747e+00 0.000000e+00 0.000000e+00
2.911392e+00 0.000000e+00 0.000000e+00
2.943038e+00 0.000000e+00 0.000000e+00
2.974684e+00 0.000000e+00 0.000000e+00
3.006329e+00 0.000000e+00 0.000000e+00
3.037975e+00 0.000000e+00 0.000000e+00
3.069620e+00 0.000000e+00 0.000000e+00
3.101266e+00 0.000000e+00 0.000000e+00
3.132911e+00 0.000000e+00 0.000000e+00
3.164557e+00 0.000000e+00 0.000000e+00
3.196203e+00 0.000000e+00 0.000000e+00
3.227848e+00 0.000000e+00 0.000000e+00
3.259494e+00 0.000000e+00 0.000000e+00
3.291139e+00 0.000000e+00 0.000000e+00
3.322785e+00 0.000000e+00 0.000000e+00
3.354430e+00 0.000000e+00 0.000000e+00
3.386076e+00 0.000000e+00 0.000000e+00
3.417722e+00 0.000000e+00 0.000000e+00
3.449367e+00 0.000000e+00 0.000000e+00
3.481013e+00 0.000000e+00 0.000000e+00
3.512658e+00 0.000000e+00 0.000000e+00
3.544304e+00 0.000000e+00 0.000000e+00
3.575949e+00 0.000000e+00 0.000000e+00
3.607595e+00 0.000000e+00 0.000000e+00
3.639241e+00 0.000000e+00 0.000000e+00
3.670886e+00 0.000000e+00 0.000000e+00
3.702532e+00 0.000000e+00 0.000000e+00
3.734177e+00 0.000000e+00 0.000000e+00
3.765823e+00 0.000000e+00 0.000000e+00
3.797468e+00 0.000000e+00 0.000000e+00
3.829114e+00 0.000000e+00 0.000000e+00
3.860759e+00 0.000000e+00 0.000000e+00
3.892405e+00 0.000000e+00 0.000000e+00
3.924051e+00 0.000000e+00 0.000000e+00
3.955696e+00 0.000000e+00 0.000000e+00
3.987342e+00 0.000000e+00 0.000000e+00
4.018987e+00 0.000000e+00 0.000000e+00
4.050633e+00 0.000000e+00 0.000000e+00
4.082278e+00 0.000000e+00 0.000000e+00
4.113924e+00 0.000000e+00 0.000000e+00
4.145570e+00 0.000000e+00 0.000000e+00
4.177215e+00 0.000000e+00 0.000000e+00
4.208861e+00 0.000000e+00 0.000000e+00
4.240506e+00 0.000000e+00 0.000000e+00
4.272152e+00 0.000000e+00 0.000000e+00
4.303797e+00 0.000000e+00 0.000000e+00
4.335443e+00 0.000000e+00 0.000000e+00
4.367089e+00 0.000000e+00 0.000000e+00
4.398734e+00 0.000000e+00 0.000000e+00
4.430380e+00 0.000000e+00 0.000000e+00
4.462025e+00 0.000000e+00 0.000000e+00
4.493671e+00 0.000000e+00 0.000000e+00
4.525316e+00 0.000000e+00 0.000000e+00
4.556962e+00 0.000000e+00 0.000000e+00
4.588608e+00 0.000000e+00 0.000000e+00
4.620253e+00 0.000000e+00 0.000000e+00
4.651899e+00 0.000000e+00 0.000000e+00
4.683544e+00 0.000000e+00 0.000000e+00
4.715190e+00 0.000000e+00 0.000000e+00
4.746835e+00 0.000000e+00 0.000000e+00
4.778481e+00 0.000000e+00 0.000000e+00
4.810127e+00 0.000000e+00 0.000000e+00
4.841772e+00 0.000000e+00 0.000000e+00
4.873418e+00 0.000000e+00 0.000000e+00
4.905063e+00 0.000000e+00 0.000000e+00
4.936709e+00 0.000000e+00 0.000000e+00
4.968354e+00 0.000000e+00 0.000000e+00
5.000000e+00 0.000000e+00 0.000000e+00
0.000000e+00 3.333333e-02 0.000000e+00
3.164557e-02 3.333333e-02 0.000000e+00
6.329114e-02 3.333333e-02 0.000000e+00
9.493671e-02 3.333333e-02 0.000000e+00
1.265823e-01 3.333333e-02 0.000000e+00
1.582278e-01 3.333333e-02 0.000000e+00
1.898734e-01 3.333333e-02 0.000000e+00
2.215190e-01 3.333333e-02 0.000000e+00
2.531646e-01 3.333333e-02 0.000000e+00
2.848101e-01 3.333333e-02 0.000000e+00
3.164557e-01 3.333333e-02 0.000000e+00
3.481013e-01 3.333333e-02 0.000000e+00
3.797468e-01 3.333333e-02 0.000000e+00
4.113924e-01 3.333333e-02 0.000000e+00
4.430380e-01 3.333333e-02 0.000000e+00
4.746835e-01 3.333333e-02 0.000000e+00
5.063291e-01 3.333333e-02 0.000000e+00
5.379747e-01 3.333333e-02 0.000000e+00
5.696203e-01 3.333333e-02 0.000000e+00
6.012658e-01 3.333333e-02 0.000000e+00
6.329114e-01 3.333333e-02 0.000000e+00
6.645570e-01 3.333333e-02 0.000000e+00
6.962025e-01 3.333333e-02 0.000000e+00
7.278481e-01 3.333333e-02 0.000000e+00
7.594937e-01 3.333333e-02 0.000000e+00
7.911392e-01 3.333333e-02 0.000000e+00
8.227848e-01 3.333333e-02 0.000000e+00
8.544304e-01 3.333333e-02 0.000000e+00
8.860759e-01 3.333333e-02 0.000000e+00
9.177215e-01 3.333333e-02 0.000000e+00
9.493671e-01 3.333333e-02 0.000000e+00
9.810127e-01 3.333333e-02 0.000000e+00
1.012658e+00 3.333333e-02 0.000000e+00
1.044304e+00 3.333333e-02 0.000000e+00
1.075949e+00 3.333333e-02 0.000000e+00
1.107595e+00 3.333333e-02 0.000000e+00
1.139241e+00 3.333333e-02 0.000000e+00
1.170886e+00 3.333333e-02 0.000000e+00
1.202532e+00 3.333333e-02 0.000000e+00
1.234177e+00 3.333333e-02 0.000000e+00
1.265823e+00 3.333333e-02 0.000000e+00
1.297468e+00 3.333333e-02 0.000000e+00
1.329114e+00 3.333333e-02 0.000000e+00
1.360759e+00 3.333333e-02 0.000000e+00
1.392405e+00 3.333333e-02 0.000000e+00
1.424051e+00 3.333333e-02 0.000000e+00
1.455696e+00 3.333333e-02 0.000000e+00
1.487342e+00 3.333333e-02 0.000000e+00
1.518987e+00 3.333333e-02 0.000000e+00
1.550633e+00 3.333333e-02 0.000000e+00
1.582278e+00 3.333333e-02 0.000000e+00
1.613924e+00 3.333333e-02 0.000000e+00
1.645570e+00 3.333333e-02 0.000000e+00
1.677215e+00 3.333333e-02 0.000000e+00
1.708861e+00 3.333333e-02 0.000000e+00
1.740506e+00 3.333333e-02 0.000000e+00
1.772152e+00 3.333333e-02 0.000000e+00
1.803797e+00 3.333333e-02 0.000000e+00
1.835443e+00 3.333333e-02 0.000000e+00
1.867089e+00 3.333333e-02 0.000000e+00
1.898734e+00 3.333333e-02 0.000000e+00
1.930380e+00 3.333333e-02 0.000000e+00
1.962025e+00 3.333333e-02 0.000000e+00
1.993671e+00 3.333333e-02 0.000000e+00
2.025316e+00 3.333333e-02 0.000000e+00
2.056962e+00 3.333333e-02 0.000000e+00
2.088608e+00 3.333333e-02 0.000000e+00
2.120253e+00 3.333333e-02 0.000000e+00
2.151899e+00 3.333333e-02 0.000000e+00
2.183544e+00 3.333333e-02 0.000000e+00
2.215190e+00 3.333333e-02 0.000000e+00
2.246835e+00 3.333333e-02 0.000000e+00
2.278481e+00 3.333333e-02 0.000000e+00
2.310127e+00 3.333333e-02 0.000000e+00
2.341772e+00 3.333333e-02 0.000000e+00
2.373418e+00 3.333333e-02 0.000000e+00
2.405063e+00 3.333333e-02 0.000000e+00
2.436709e+00 3.333333e-02 0.000000e+00
2.468354e+00 3.333333e-02 0.000000e+00
2.500000e+00 3.333333e-02 0.000000e+00
2.531646e+00 3.333333e-02 0.000000e+00
2.563291e+00 3.333333e-02 0.000000e+00
2.594937e+00 3.333333e-02 0.000000e+00
2.626582e+00 3.333333e-02 0.000000e+00
2.658228e+00 3.333333e-02 0.000000e+00
2.689873e+00 3.333333e-02 0.000000e+00
2.721519e+00 3.333333e-02 0.000000e+00
2.753165e+00 3.333333e-02 0.000000e+00
2.784810e+00 3.333333e-02 0.000000e+00
2.816456e+00 3.333333e-02 0.000000e+00
2.848101e+00 3.333333e-02 0.000000e+00
2.879747e+00 3.333333e-02 0.000000e+00
[...]
<PointData>
<DataArray Name="Velocity" type="Float64" format="ascii" NumberOfComponents="3">
0.000000e+00 0.000000e+00 0
0.000000e+00 0.000000e+00 0
0.000000e+00 0.000000e+00 0
0.000000e+00 0.000000e+00 0
0.000000e+00 0.000000e+00 0
0.000000e+00 0.000000e+00 0
0.000000e+00 0.000000e+00 0
0.000000e+00 0.000000e+00 0
0.000000e+00 0.000000e+00 0
0.000000e+00 0.000000e+00 0
0.000000e+00 0.000000e+00 0
0.000000e+00 0.000000e+00 0
0.000000e+00 0.000000e+00 0
0.000000e+00 0.000000e+00 0
0.000000e+00 0.000000e+00 0
0.000000e+00 0.000000e+00 0
0.000000e+00 0.000000e+00 0
0.000000e+00 0.000000e+00 0
0.000000e+00 0.000000e+00 0
1.814211e-17 0.000000e+00 0
0.000000e+00 0.000000e+00 0
0.000000e+00 0.000000e+00 0
0.000000e+00 0.000000e+00 0
1.814203e-17 0.000000e+00 0
0.000000e+00 0.000000e+00 0
0.000000e+00 0.000000e+00 0
0.000000e+00 0.000000e+00 0
1.814199e-17 0.000000e+00 0
0.000000e+00 0.000000e+00 0
0.000000e+00 0.000000e+00 0
0.000000e+00 0.000000e+00 0
1.814193e-17 0.000000e+00 0
0.000000e+00 0.000000e+00 0
0.000000e+00 0.000000e+00 0
0.000000e+00 0.000000e+00 0
0.000000e+00 0.000000e+00 0
0.000000e+00 0.000000e+00 0
0.000000e+00 0.000000e+00 0
3.628367e-17 0.000000e+00 0
0.000000e+00 0.000000e+00 0
0.000000e+00 0.000000e+00 0
0.000000e+00 0.000000e+00 0
0.000000e+00 0.000000e+00 0
0.000000e+00 0.000000e+00 0
0.000000e+00 0.000000e+00 0
0.000000e+00 0.000000e+00 0
3.628347e-17 0.000000e+00 0
0.000000e+00 0.000000e+00 0
0.000000e+00 0.000000e+00 0
0.000000e+00 0.000000e+00 0
0.000000e+00 0.000000e+00 0
0.000000e+00 0.000000e+00 0
0.000000e+00 0.000000e+00 0
0.000000e+00 0.000000e+00 0
3.628326e-17 0.000000e+00 0
0.000000e+00 0.000000e+00 0
0.000000e+00 0.000000e+00 0
0.000000e+00 0.000000e+00 0
0.000000e+00 0.000000e+00 0
0.000000e+00 0.000000e+00 0
0.000000e+00 0.000000e+00 0
0.000000e+00 0.000000e+00 0
3.628305e-17 0.000000e+00 0
0.000000e+00 0.000000e+00 0
0.000000e+00 0.000000e+00 0
0.000000e+00 0.000000e+00 0
0.000000e+00 0.000000e+00 0
0.000000e+00 0.000000e+00 0
0.000000e+00 0.000000e+00 0
0.000000e+00 0.000000e+00 0
0.000000e+00 0.000000e+00 0
0.000000e+00 0.000000e+00 0
0.000000e+00 0.000000e+00 0
0.000000e+00 0.000000e+00 0
0.000000e+00 0.000000e+00 0
0.000000e+00 0.000000e+00 0
0.000000e+00 0.000000e+00 0
0.000000e+00 0.000000e+00 0
0.000000e+00 0.000000e+00 0
0.000000e+00 0.000000e+00 0
0.000000e+00 0.000000e+00 0
0.000000e+00 0.000000e+00 0
0.000000e+00 0.000000e+00 0
0.000000e+00 0.000000e+00 0
0.000000e+00 0.000000e+00 0
0.000000e+00 0.000000e+00 0
0.000000e+00 0.000000e+00 0
0.000000e+00 0.000000e+00 0
0.000000e+00 0.000000e+00 0
0.000000e+00 0.000000e+00 0
0.000000e+00 0.000000e+00 0
0.000000e+00 0.000000e+00 0
0.000000e+00 0.000000e+00 0
0.000000e+00 0.000000e+00 0
0.000000e+00 0.000000e+00 0
0.000000e+00 0.000000e+00 0
0.000000e+00 0.000000e+00 0
0.000000e+00 0.000000e+00 0
0.000000e+00 0.000000e+00 0
0.000000e+00 0.000000e+00 0
0.000000e+00 0.000000e+00 0
0.000000e+00 0.000000e+00 0
0.000000e+00 0.000000e+00 0
0.000000e+00 0.000000e+00 0
0.000000e+00 0.000000e+00 0
0.000000e+00 0.000000e+00 0
0.000000e+00 0.000000e+00 0
0.000000e+00 0.000000e+00 0
0.000000e+00 0.000000e+00 0
0.000000e+00 0.000000e+00 0
0.000000e+00 0.000000e+00 0
0.000000e+00 0.000000e+00 0
0.000000e+00 0.000000e+00 0
0.000000e+00 0.000000e+00 0
0.000000e+00 0.000000e+00 0
0.000000e+00 0.000000e+00 0
0.000000e+00 0.000000e+00 0
0.000000e+00 0.000000e+00 0
0.000000e+00 0.000000e+00 0
0.000000e+00 0.000000e+00 0
0.000000e+00 0.000000e+00 0
0.000000e+00 0.000000e+00 0
0.000000e+00 0.000000e+00 0
0.000000e+00 0.000000e+00 0
0.000000e+00 0.000000e+00 0
0.000000e+00 0.000000e+00 0
0.000000e+00 0.000000e+00 0
0.000000e+00 0.000000e+00 0
0.000000e+00 0.000000e+00 0
0.000000e+00 0.000000e+00 0
0.000000e+00 0.000000e+00 0
0.000000e+00 0.000000e+00 0
0.000000e+00 0.000000e+00 0
0.000000e+00 0.000000e+00 0
0.000000e+00 0.000000e+00 0
0.000000e+00 0.000000e+00 0
0.000000e+00 0.000000e+00 0
0.000000e+00 0.000000e+00 0
0.000000e+00 0.000000e+00 0
0.000000e+00 0.000000e+00 0
0.000000e+00 0.000000e+00 0
0.000000e+00 0.000000e+00 0
0.000000e+00 0.000000e+00 0
0.000000e+00 0.000000e+00 0
0.000000e+00 0.000000e+00 0
0.000000e+00 0.000000e+00 0
0.000000e+00 0.000000e+00 0
0.000000e+00 0.000000e+00 0
0.000000e+00 0.000000e+00 0
0.000000e+00 0.000000e+00 0
0.000000e+00 0.000000e+00 0
0.000000e+00 0.000000e+00 0
0.000000e+00 0.000000e+00 0
0.000000e+00 0.000000e+00 0
0.000000e+00 0.000000e+00 0
0.000000e+00 0.000000e+00 0
0.000000e+00 0.000000e+00 0
0.000000e+00 0.000000e+00 0
0.000000e+00 0.000000e+00 0
2.910170e+00 1.496999e-08 0
2.910170e+00 2.901574e-08 0
2.910170e+00 4.621218e-08 0
2.910170e+00 4.724041e-08 0
2.910170e+00 4.119644e-08 0
2.910170e+00 3.357603e-08 0
2.910170e+00 2.650548e-08 0
2.910170e+00 2.108389e-08 0
2.910170e+00 1.848773e-08 0
2.910170e+00 1.896416e-08 0
2.910170e+00 2.161884e-08 0
2.910170e+00 2.366244e-08 0
2.910170e+00 2.222935e-08 0
2.910170e+00 1.679859e-08 0
2.910170e+00 9.711047e-09 0
2.910170e+00 4.457199e-09 0
2.910170e+00 3.504990e-09 0
2.910170e+00 6.681229e-09 0
2.910170e+00 1.086412e-08 0
2.910170e+00 1.262160e-08 0
2.910170e+00 1.099008e-08 0
2.910170e+00 7.521918e-09 0
2.910170e+00 4.573642e-09 0
2.910170e+00 3.706015e-09 0
2.910170e+00 4.951047e-09 0
2.910170e+00 7.053220e-09 0
2.910170e+00 8.578044e-09 0
2.910170e+00 8.924577e-09 0
2.910170e+00 8.415531e-09 0
2.910170e+00 7.758971e-09 0
2.910170e+00 7.465953e-09 0
2.910170e+00 7.591211e-09 0
2.910170e+00 7.859790e-09 0
2.910170e+00 7.987908e-09 0
2.910170e+00 7.923760e-09 0
2.910170e+00 7.841699e-09 0
2.910170e+00 7.929646e-09 0
2.910170e+00 8.169001e-09 0
2.910170e+00 8.311675e-09 0
2.910170e+00 8.088823e-09 0
2.910170e+00 7.479483e-09 0
2.910170e+00 6.800480e-09 0
2.910170e+00 6.513295e-09 0
2.910170e+00 6.879665e-09 0
2.910170e+00 7.736404e-09 0
2.910170e+00 8.576020e-09 0
2.910170e+00 8.883424e-09 0
2.910170e+00 8.485381e-09 0
2.910170e+00 7.661930e-09 0
2.910170e+00 6.946313e-09 0
2.910170e+00 6.764852e-09 0
2.910170e+00 7.171973e-09 0
2.910170e+00 7.850910e-09 0
2.910170e+00 8.355282e-09 0
2.910170e+00 8.406793e-09 0
2.910170e+00 8.045767e-09 0
2.910170e+00 7.554531e-09 0
2.910170e+00 7.239396e-09 0
2.910170e+00 7.240930e-09 0
2.910170e+00 7.491998e-09 0
2.910170e+00 7.814280e-09 0
2.910170e+00 8.048827e-09 0
2.910170e+00 8.125509e-09 0
2.910170e+00 8.057017e-09 0
2.910170e+00 7.903745e-09 0
2.910170e+00 7.747669e-09 0
2.910170e+00 7.669764e-09 0
2.910170e+00 7.713051e-09 0
2.910169e+00 7.847047e-09 0
2.910169e+00 7.975465e-09 0
2.910169e+00 8.000662e-09 0
2.910169e+00 7.899669e-09 0
2.910169e+00 7.745053e-09 0
2.910169e+00 7.648405e-09 0
2.910169e+00 7.672433e-09 0
2.910169e+00 7.783666e-09 0
2.910169e+00 7.879515e-09 0
2.910169e+00 7.863402e-09 0
2.910169e+00 7.710129e-09 0
2.910169e+00 7.476468e-09 0
2.910169e+00 7.254960e-09 0
2.910169e+00 7.107463e-09 0
2.910169e+00 7.026416e-09 0
2.910169e+00 6.950928e-09 0
2.910169e+00 6.820968e-09 0
2.910169e+00 6.625340e-09 0
2.910169e+00 6.407806e-09 0
2.910169e+00 6.231035e-09 0
2.910169e+00 6.130994e-09 0
2.910169e+00 6.097979e-09 0
2.910169e+00 6.094688e-09 0
2.910169e+00 6.090599e-09 0
2.910169e+00 6.082166e-09 0
2.910169e+00 6.085358e-09 0
2.910169e+00 6.113890e-09 0
2.910169e+00 6.165029e-09 0
2.910169e+00 6.223687e-09 0
2.910169e+00 6.276419e-09 0
2.910169e+00 6.318647e-09 0
2.910169e+00 6.351602e-09 0
2.910169e+00 6.377317e-09 0
2.910169e+00 6.396539e-09 0
2.910169e+00 6.410272e-09 0
2.910169e+00 6.419326e-09 0
2.910169e+00 6.423120e-09 0
2.910169e+00 6.420034e-09 0
2.910169e+00 6.408256e-09 0
2.910169e+00 6.389065e-09 0
2.910169e+00 6.363737e-09 0
2.910169e+00 6.332725e-09 0
2.910169e+00 6.295218e-09 0
2.910169e+00 6.247394e-09 0
2.910169e+00 6.187167e-09 0
2.910169e+00 6.115078e-09 0
2.910169e+00 6.032823e-09 0
2.910169e+00 5.942296e-09 0
2.910169e+00 5.844875e-09 0
2.910169e+00 5.742020e-09 0
2.910169e+00 5.636661e-09 0
2.910169e+00 5.533629e-09 0
2.910169e+00 5.437200e-09 0
2.910169e+00 5.347518e-09 0
2.910169e+00 5.259795e-09 0
2.910169e+00 5.168463e-09 0
2.910169e+00 5.073172e-09 0
2.910169e+00 4.980150e-09 0
2.910169e+00 4.897625e-09 0
2.910169e+00 4.829080e-09 0
2.910169e+00 4.770875e-09 0
2.910169e+00 4.716322e-09 0
2.910169e+00 4.661976e-09 0
2.910169e+00 4.610192e-09 0
2.910169e+00 4.565436e-09 0
2.910169e+00 4.528803e-09 0
2.910169e+00 4.497025e-09 0
2.910169e+00 4.466525e-09 0
2.910169e+00 4.436463e-09 0
2.910169e+00 4.407798e-09 0
2.910169e+00 4.380837e-09 0
2.910169e+00 4.354449e-09 0
2.910169e+00 4.327351e-09 0
2.910169e+00 4.298129e-09 0
2.910169e+00 4.267303e-09 0
2.910169e+00 4.237571e-09 0
2.910169e+00 4.210060e-09 0
2.910169e+00 4.184410e-09 0
2.910169e+00 4.159960e-09 0
2.910169e+00 4.138318e-09 0
2.910169e+00 4.121060e-09 0
2.910169e+00 4.107703e-09 0
2.910169e+00 4.098685e-09 0
2.910169e+00 4.093934e-09 0
2.910169e+00 4.090161e-09 0
2.910169e+00 4.078853e-09 0
2.910169e+00 4.042893e-09 0
2.910169e+00 3.935469e-09 0
2.910169e+00 3.618941e-09 0
2.910169e+00 2.063096e-09 0
2.910169e+00 7.433388e-10 0
5.601536e+00 1.368683e-08 0
5.601536e+00 2.375408e-08 0
5.601536e+00 3.513349e-08 0
5.601536e+00 3.407688e-08 0
5.601536e+00 2.963771e-08 0
5.601536e+00 2.624598e-08 0
5.601536e+00 2.358011e-08 0
5.601536e+00 2.071101e-08 0
5.601536e+00 1.846364e-08 0
5.601536e+00 1.831379e-08 0
5.601536e+00 1.999522e-08 0
5.601536e+00 2.108879e-08 0
5.601536e+00 1.906779e-08 0
5.601536e+00 1.394737e-08 0
5.601536e+00 8.535740e-09 0
5.601536e+00 5.875214e-09 0
5.601536e+00 6.940500e-09 0
5.601536e+00 1.023073e-08 0
5.601536e+00 1.283057e-08 0
5.601536e+00 1.277700e-08 0
5.601536e+00 1.047473e-08 0
5.601536e+00 7.850671e-09 0
5.601536e+00 6.554510e-09 0
5.601536e+00 6.914012e-09 0
5.601536e+00 8.119975e-09 0
5.601536e+00 9.094726e-09 0
5.601536e+00 9.319064e-09 0
5.601536e+00 9.011739e-09 0
5.601536e+00 8.697426e-09 0
5.601536e+00 8.695963e-09 0
5.601536e+00 8.939020e-09 0
5.601536e+00 9.135550e-09 0
5.601536e+00 9.064103e-09 0
5.601536e+00 8.755204e-09 0
5.601536e+00 8.457244e-09 0
5.601536e+00 8.432445e-09 0
5.601536e+00 8.733306e-09 0
5.601536e+00 9.126698e-09 0
5.601536e+00 9.236872e-09 0
5.601536e+00 8.826222e-09 0
5.601536e+00 8.010673e-09 0
5.601536e+00 7.228839e-09 0
5.601536e+00 6.959574e-09 0
5.601536e+00 7.380777e-09 0
5.601536e+00 8.223713e-09 0
5.601536e+00 8.942508e-09 0
5.601536e+00 9.084206e-09 0
5.601536e+00 8.590868e-09 0
5.601536e+00 7.819650e-09 0
5.601536e+00 7.279986e-09 0
5.601536e+00 7.287789e-09 0
5.601536e+00 7.780147e-09 0
5.601536e+00 8.401652e-09 0
5.601536e+00 8.772670e-09 0
5.601536e+00 8.733456e-09 0
5.601536e+00 8.403670e-09 0
5.601536e+00 8.050790e-09 0
5.601536e+00 7.894033e-09 0
5.601536e+00 7.988527e-09 0
5.601536e+00 8.243957e-09 0
5.601536e+00 8.522583e-09 0
5.601536e+00 8.723842e-09 0
5.601536e+00 8.809178e-09 0
5.601536e+00 8.787250e-09 0
5.601536e+00 8.699340e-09 0
5.601536e+00 8.612028e-09 0
5.601536e+00 8.595118e-09 0
5.601536e+00 8.679080e-09 0
5.601536e+00 8.824653e-09 0
5.601536e+00 8.943275e-09 0
5.601536e+00 8.963238e-09 0
5.601536e+00 8.887884e-09 0
5.601536e+00 8.793420e-09 0
5.601536e+00 8.767175e-09 0
5.601536e+00 8.838602e-09 0
5.601536e+00 8.957349e-09 0
5.601536e+00 9.031040e-09 0
5.601536e+00 8.990297e-09 0
5.601536e+00 8.833464e-09 0
5.601536e+00 8.621893e-09 0
5.601536e+00 8.432141e-09 0
5.601536e+00 8.300642e-09 0
5.601536e+00 8.201816e-09 0
5.601536e+00 8.074634e-09 0
5.601536e+00 7.875429e-09 0
5.601536e+00 7.613432e-09 0
5.601536e+00 7.341943e-09 0
5.601536e+00 7.116452e-09 0
5.601536e+00 6.956344e-09 0
5.601536e+00 6.841292e-09 0
5.601536e+00 6.738583e-09 0
5.601536e+00 6.633730e-09 0
5.601536e+00 6.537826e-09 0
5.601536e+00 6.470745e-09 0
5.601536e+00 6.440549e-09 0
5.601536e+00 6.437800e-09 0
5.601536e+00 6.446390e-09 0
5.601536e+00 6.456177e-09 0
5.601536e+00 6.465430e-09 0
5.601536e+00 6.476594e-09 0
5.601536e+00 6.490413e-09 0
5.601536e+00 6.505120e-09 0
5.601536e+00 6.516975e-09 0
5.601536e+00 6.522204e-09 0
5.601536e+00 6.517992e-09 0
5.601536e+00 6.501646e-09 0
5.601536e+00 6.472461e-09 0
5.601536e+00 6.428731e-09 0
5.601536e+00 6.369614e-09 0
5.601536e+00 6.294179e-09 0
5.601536e+00 6.199615e-09 0
5.601536e+00 6.084364e-09 0
5.601536e+00 5.947549e-09 0
5.601536e+00 5.790747e-09 0
5.601536e+00 5.619511e-09 0
5.601536e+00 5.440860e-09 0
5.601536e+00 5.261305e-09 0
5.601536e+00 5.087226e-09 0
5.601536e+00 4.925532e-09 0
5.601536e+00 4.781943e-09 0
5.601536e+00 4.658163e-09 0
5.601536e+00 4.550093e-09 0
5.601536e+00 4.450637e-09 0
5.601536e+00 4.355214e-09 0
5.601536e+00 4.264954e-09 0
5.601536e+00 4.184900e-09 0
5.601536e+00 4.117855e-09 0
5.601536e+00 4.060530e-09 0
5.601536e+00 4.005374e-09 0
5.601536e+00 3.946537e-09 0
5.601536e+00 3.884043e-09 0
5.601536e+00 3.822023e-09 0
5.601536e+00 3.762983e-09 0
5.601536e+00 3.704729e-09 0
5.601536e+00 3.643489e-09 0
5.601536e+00 3.578247e-09 0
5.601536e+00 3.510828e-09 0
5.601536e+00 3.443042e-09 0
5.601536e+00 3.374912e-09 0
5.601536e+00 3.306335e-09 0
5.601536e+00 3.236907e-09 0
5.601536e+00 3.167618e-09 0
5.601536e+00 3.100892e-09 0
5.601536e+00 3.038066e-09 0
5.601536e+00 2.978492e-09 0
5.601536e+00 2.921523e-09 0
5.601536e+00 2.868757e-09 0
5.601536e+00 2.822895e-09 0
5.601536e+00 2.785308e-09 0
5.601536e+00 2.756363e-09 0
5.601536e+00 2.737379e-09 0
5.601536e+00 2.726260e-09 0
5.601536e+00 2.715700e-09 0
5.601536e+00 2.693349e-09 0
5.601536e+00 2.632445e-09 0
5.601536e+00 2.479193e-09 0
5.601536e+00 2.119922e-09 0
5.601536e+00 1.409796e-09 0
5.601536e+00 9.505420e-10 0
8.077486e+00 8.749413e-09 0
8.077486e+00 1.452111e-08 0
8.077486e+00 2.055040e-08 0
8.077486e+00 1.918576e-08 0
8.077486e+00 1.664532e-08 0
8.077486e+00 1.529286e-08 0
8.077486e+00 1.429639e-08 0
8.077486e+00 1.324268e-08 0
8.077486e+00 1.321657e-08 0
8.077486e+00 1.504410e-08 0
8.077486e+00 1.713228e-08 0
8.077486e+00 1.666981e-08 0
8.077486e+00 1.262325e-08 0
8.077486e+00 7.173229e-09 0
8.077486e+00 4.003665e-09 0
8.077486e+00 5.105449e-09 0
8.077486e+00 9.273071e-09 0
8.077486e+00 1.312019e-08 0
8.077486e+00 1.389076e-08 0
8.077486e+00 1.147958e-08 0
8.077486e+00 8.187985e-09 0
8.077486e+00 6.507811e-09 0
8.077486e+00 7.134140e-09 0
8.077486e+00 8.954186e-09 0
8.077486e+00 1.031273e-08 0
8.077486e+00 1.037053e-08 0
8.077486e+00 9.490064e-09 0
8.077486e+00 8.627341e-09 0
8.077486e+00 8.462693e-09 0
8.077486e+00 8.983210e-09 0
8.077486e+00 9.676842e-09 0
8.077486e+00 1.001392e-08 0
8.077486e+00 9.809623e-09 0
8.077486e+00 9.280330e-09 0
8.077486e+00 8.842030e-09 0
8.077486e+00 8.815023e-09 0
8.077486e+00 9.206666e-09 0
8.077486e+00 9.693898e-09 0
8.077486e+00 9.833300e-09 0
8.077486e+00 9.378832e-09 0
8.077486e+00 8.491047e-09 0
8.077486e+00 7.664124e-09 0
8.077486e+00 7.391367e-09 0
8.077486e+00 7.804606e-09 0
8.077486e+00 8.565580e-09 0
8.077486e+00 9.102234e-09 0
8.077486e+00 9.015592e-09 0
8.077486e+00 8.354033e-09 0
8.077486e+00 7.555897e-09 0
8.077486e+00 7.118665e-09 0
8.077486e+00 7.256816e-09 0
8.077486e+00 7.795808e-09 0
8.077486e+00 8.345305e-09 0
8.077486e+00 8.587043e-09 0
8.077486e+00 8.460084e-09 0
8.077486e+00 8.140361e-09 0
8.077486e+00 7.875951e-09 0
8.077486e+00 7.823141e-09 0
8.077486e+00 7.988368e-09 0
8.077486e+00 8.276640e-09 0
8.077486e+00 8.574534e-09 0
8.077486e+00 8.801941e-09 0
8.077486e+00 8.921860e-09 0
8.077486e+00 8.936980e-09 0
8.077486e+00 8.890606e-09 0
8.077486e+00 8.857604e-09 0
8.077486e+00 8.907220e-09 0
8.077486e+00 9.053084e-09 0
8.077486e+00 9.235064e-09 0
8.077486e+00 9.359675e-09 0
8.077486e+00 9.371934e-09 0
8.077486e+00 9.298488e-09 0
8.077486e+00 9.225515e-09 0
8.077486e+00 9.230840e-09 0
8.077486e+00 9.325324e-09 0
8.077486e+00 9.446058e-09 0
8.077486e+00 9.502032e-09 0
8.077486e+00 9.437268e-09 0
8.077486e+00 9.267359e-09 0
8.077486e+00 9.064601e-09 0
8.077486e+00 8.902330e-09 0
8.077486e+00 8.799846e-09 0
8.077486e+00 8.711301e-09 0
8.077486e+00 8.567634e-09 0
8.077486e+00 8.335248e-09 0
8.077486e+00 8.042445e-09 0
8.077486e+00 7.753209e-09 0
8.077486e+00 7.515677e-09 0
8.077486e+00 7.331957e-09 0
8.077486e+00 7.170070e-09 0
8.077486e+00 7.001113e-09 0
8.077486e+00 6.824446e-09 0
8.077486e+00 6.662419e-09 0
8.077486e+00 6.536832e-09 0
8.077486e+00 6.450887e-09 0
8.077486e+00 6.392047e-09 0
8.077486e+00 6.346342e-09 0
8.077486e+00 6.306580e-09 0
8.077486e+00 6.273720e-09 0
8.077486e+00 6.251058e-09 0
8.077486e+00 6.239430e-09 0
8.077486e+00 6.235395e-09 0
8.077486e+00 6.232809e-09 0
8.077486e+00 6.224355e-09 0
8.077486e+00 6.203230e-09 0
8.077486e+00 6.166125e-09 0
8.077486e+00 6.109864e-09 0
8.077486e+00 6.030622e-09 0
8.077486e+00 5.924466e-09 0
8.077486e+00 5.786558e-09 0
8.077486e+00 5.612682e-09 0
8.077486e+00 5.400203e-09 0
8.077486e+00 5.150055e-09 0
8.077486e+00 4.869242e-09 0
8.077486e+00 4.568311e-09 0
8.077486e+00 4.258781e-09 0
8.077486e+00 3.954271e-09 0
8.077486e+00 3.670496e-09 0
8.077486e+00 3.421073e-09 0
8.077486e+00 3.213408e-09 0
8.077486e+00 3.046167e-09 0
8.077486e+00 2.912118e-09 0
8.077486e+00 2.804020e-09 0
8.077486e+00 2.718995e-09 0
8.077486e+00 2.658100e-09 0
8.077486e+00 2.621653e-09 0
8.077486e+00 2.605343e-09 0
8.077486e+00 2.599762e-09 0
8.077486e+00 2.595164e-09 0
8.077486e+00 2.587089e-09 0
8.077486e+00 2.577084e-09 0
8.077486e+00 2.567415e-09 0
8.077486e+00 2.556016e-09 0
8.077486e+00 2.537611e-09 0
8.077486e+00 2.509174e-09 0
8.077486e+00 2.472029e-09 0
8.077486e+00 2.428872e-09 0
8.077486e+00 2.380648e-09 0
8.077486e+00 2.327153e-09 0
8.077486e+00 2.268897e-09 0
8.077486e+00 2.207391e-09 0
8.077486e+00 2.145698e-09 0
8.077486e+00 2.086143e-09 0
8.077486e+00 2.027872e-09 0
8.077486e+00 1.968317e-09 0
8.077486e+00 1.907735e-09 0
8.077486e+00 1.848574e-09 0
8.077486e+00 1.794158e-09 0
8.077486e+00 1.746431e-09 0
8.077486e+00 1.707853e-09 0
8.077486e+00 1.680689e-09 0
8.077486e+00 1.661776e-09 0
8.077486e+00 1.644220e-09 0
8.077486e+00 1.618065e-09 0
8.077486e+00 1.562503e-09 0
8.077486e+00 1.449693e-09 0
8.077486e+00 1.260848e-09 0
8.077486e+00 9.783761e-10 0
8.077486e+00 8.109245e-10 0
1.034133e+01 9.377769e-10 0
1.034133e+01 2.822332e-09 0
1.034133e+01 4.669463e-09 0
1.034133e+01 3.731909e-09 0
1.034133e+01 2.583642e-09 0
1.034133e+01 2.149170e-09 0
1.034133e+01 1.926301e-09 0
1.034133e+01 2.996470e-09 0
1.034133e+01 6.520394e-09 0
1.034133e+01 1.123507e-08 0
1.034133e+01 1.355661e-08 0
1.034133e+01 1.072798e-08 0
1.034133e+01 4.177536e-09 0
1.034133e+01 -1.158814e-09 0
1.034133e+01 -1.095248e-09 0
1.034133e+01 4.451431e-09 0
1.034133e+01 1.144421e-08 0
1.034133e+01 1.505652e-08 0
1.034133e+01 1.351420e-08 0
1.034133e+01 9.067540e-09 0
1.034133e+01 5.689103e-09 0
1.034133e+01 5.705999e-09 0
1.034133e+01 8.423523e-09 0
1.034133e+01 1.132005e-08 0
1.034133e+01 1.231988e-08 0
1.034133e+01 1.120029e-08 0
1.034133e+01 9.271381e-09 0
1.034133e+01 8.043883e-09 0
1.034133e+01 8.145181e-09 0
1.034133e+01 9.166523e-09 0
1.034133e+01 1.023646e-08 0
1.034133e+01 1.069649e-08 0
1.034133e+01 1.043353e-08 0
1.034133e+01 9.807138e-09 0
1.034133e+01 9.343863e-09 0
1.034133e+01 9.396500e-09 0
1.034133e+01 9.925114e-09 0
1.034133e+01 1.051450e-08 0
1.034133e+01 1.064374e-08 0
1.034133e+01 1.006558e-08 0
1.034133e+01 9.025100e-09 0
1.034133e+01 8.119762e-09 0
1.034133e+01 7.873315e-09 0
1.034133e+01 8.339893e-09 0
1.034133e+01 9.055096e-09 0
1.034133e+01 9.386107e-09 0
1.034133e+01 9.007498e-09 0
1.034133e+01 8.123785e-09 0
1.034133e+01 7.280861e-09 0
1.034133e+01 6.947700e-09 0
1.034133e+01 7.205377e-09 0
1.034133e+01 7.754704e-09 0
1.034133e+01 8.184217e-09 0
1.034133e+01 8.257527e-09 0
1.034133e+01 8.017747e-09 0
1.034133e+01 7.686932e-09 0
1.034133e+01 7.485899e-09 0
1.034133e+01 7.514307e-09 0
1.034133e+01 7.741775e-09 0
1.034133e+01 8.068662e-09 0
1.034133e+01 8.389306e-09 0
1.034133e+01 8.625296e-09 0
1.034133e+01 8.739038e-09 0
1.034133e+01 8.744318e-09 0
1.034133e+01 8.707706e-09 0
1.034133e+01 8.720698e-09 0
1.034133e+01 8.843442e-09 0
1.034133e+01 9.058117e-09 0
1.034133e+01 9.276263e-09 0
1.034133e+01 9.402571e-09 0
1.034133e+01 9.406600e-09 0
1.034133e+01 9.344433e-09 0
1.034133e+01 9.314166e-09 0
1.034133e+01 9.382497e-09 0