<?xml version="1.0"?>
<VTKFile type="StructuredGrid">
<StructuredGrid WholeExtent="0 158 0 30 0 0 ">
<Piece Extent="0 158 0 30 0 0 ">
<Points>
<DataArray type="Float64" format="ascii" NumberOfComponents="3">
0.000000e+00 0.000000e+00 0.000000e+00
3.164557e-02 0.000000e+00 0.000000e+00
6.329114e-02 0.000000e+00 0.000000e+00
9.493671e-02 0.000000e+00 0.000000e+00
1.265823e-01 0.000000e+00 0.000000e+00
1.582278e-01 0.000000e+00 0.000000e+00
1.898734e-01 0.000000e+00 0.000000e+00
2.215190e-01 0.000000e+00 0.000000e+00
2.531646e-01 0.000000e+00 0.000000e+00
2.848101e-01 0.000000e+00 0.000000e+00
3.164557e-01 0.000000e+00 0.000000e+00
3.481013e-01 0.000000e+00 0.000000e+00
3.797468e-01 0.000000e+00 0.000000e+00
4.113924e-01 0.000000e+00 0.000000e+00
4.430380e-01 0.000000e+00 0.000000e+00
4.746835e-01 0.000000e+00 0.000000e+00
5.063291e-01 0.000000e+00 0.000000e+00
5.379747e-01 0.000000e+00 0.000000e+00
5.696203e-01 0.000000e+00 0.000000e+00
6.012658e-01 0.000000e+00 0.000000e+00
6.329114e-01 0.000000e+00 0.000000e+00
6.645570e-01 0.000000e+00 0.000000e+00
6.962025e-01 0.000000e+00 0.000000e+00
7.278481e-01 0.000000e+00 0.000000e+00
7.594937e-01 0.000000e+00 0.000000e+00
7.911392e-01 0.000000e+00 0.000000e+00
8.227848e-01 0.000000e+00 0.000000e+00
8.544304e-01 0.000000e+00 0.000000e+00
8.860759e-01 0.000000e+00 0.000000e+00
9.177215e-01 0.000000e+00 0.000000e+00
9.493671e-01 0.000000e+00 0.000000e+00
9.810127e-01 0.000000e+00 0.000000e+00
1.012658e+00 0.000000e+00 0.000000e+00
1.044304e+00 0.000000e+00 0.000000e+00
1.075949e+00 0.000000e+00 0.000000e+00
1.107595e+00 0.000000e+00 0.000000e+00
1.139241e+00 0.000000e+00 0.000000e+00
1.170886e+00 0.000000e+00 0.000000e+00
1.202532e+00 0.000000e+00 0.000000e+00
1.234177e+00 0.000000e+00 0.000000e+00
1.265823e+00 0.000000e+00 0.000000e+00
1.297468e+00 0.000000e+00 0.000000e+00
1.329114e+00 0.000000e+00 0.000000e+00
1.360759e+00 0.000000e+00 0.000000e+00
1.392405e+00 0.000000e+00 0.000000e+00
1.424051e+00 0.000000e+00 0.000000e+00
1.455696e+00 0.000000e+00 0.000000e+00
1.487342e+00 0.000000e+00 0.000000e+00
1.518987e+00 0.000000e+00 0.000000e+00
1.550633e+00 0.000000e+00 0.000000e+00
1.582278e+00 0.000000e+00 0.000000e+00
1.613924e+00 0.000000e+00 0.000000e+00
1.645570e+00 0.000000e+00 0.000000e+00
1.677215e+00 0.000000e+00 0.000000e+00
1.708861e+00 0.000000e+00 0.000000e+00
1.740506e+00 0.000000e+00 0.000000e+00
1.772152e+00 0.000000e+00 0.000000e+00
1.803797e+00 0.000000e+00 0.000000e+00
1.835443e+00 0.000000e+00 0.000000e+00
1.867089e+00 0.000000e+00 0.000000e+00
1.898734e+00 0.000000e+00 0.000000e+00
1.930380e+00 0.000000e+00 0.000000e+00
1.962025e+00 0.000000e+00 0.000000e+00
1.993671e+00 0.000000e+00 0.000000e+00
2.025316e+00 0.000000e+00 0.000000e+00
2.056962e+00 0.000000e+00 0.000000e+00
2.088608e+00 0.000000e+00 0.000000e+00
2.120253e+00 0.000000e+00 0.000000e+00
2.151899e+00 0.000000e+00 0.000000e+00
2.183544e+00 0.000000e+00 0.000000e+00
2.215190e+00 0.000000e+00 0.000000e+00
2.246835e+00 0.000000e+00 0.000000e+00
2.278481e+00 0.000000e+00 0.000000e+00
2.310127e+00 0.000000e+00 0.000000e+00
2.341772e+00 0.000000e+00 0.000000e+00
2.373418e+00 0.000000e+00 0.000000e+00
2.405063e+00 0.000000e+00 0.000000e+00
2.436709e+00 0.000000e+00 0.000000e+00
2.468354e+00 0.000000e+00 0.000000e+00
2.500000e+00 0.000000e+00 0.000000e+00
2.531646e+00 0.000000e+00 0.000000e+00
2.563291e+00 0.000000e+00 0.000000e+00
2.594937e+00 0.000000e+00 0.000000e+00
2.626582e+00 0.000000e+00 0.000000e+00
2.658228e+00 0.000000e+00 0.000000e+00
2.689873e+00 0.000000e+00 0.000000e+00
2.721519e+00 0.000000e+00 0.000000e+00
2.753165e+00 0.000000e+00 0.000000e+00
2.784810e+00 0.000000e+00 0.000000e+00
2.816456e+00 0.000000e+00 0.000000e+00
2.848101e+00 0.000000e+00 0.000000e+00
2.879747e+00 0.000000e+00 0.000000e+00
2.911392e+00 0.000000e+00 0.000000e+00
2.943038e+00 0.000000e+00 0.000000e+00
2.974684e+00 0.000000e+00 0.000000e+00
3.006329e+00 0.000000e+00 0.000000e+00
3.037975e+00 0.000000e+00 0.000000e+00
3.069620e+00 0.000000e+00 0.000000e+00
3.101266e+00 0.000000e+00 0.000000e+00
3.132911e+00 0.000000e+00 0.000000e+00
3.164557e+00 0.000000e+00 0.000000e+00
3.196203e+00 0.000000e+00 0.000000e+00
3.227848e+00 0.000000e+00 0.000000e+00
3.259494e+00 0.000000e+00 0.000000e+00
3.291139e+00 0.000000e+00 0.000000e+00
3.322785e+00 0.000000e+00 0.000000e+00
3.354430e+00 0.000000e+00 0.000000e+00
3.386076e+00 0.000000e+00 0.000000e+00
3.417722e+00 0.000000e+00 0.000000e+00
3.449367e+00 0.000000e+00 0.000000e+00
3.481013e+00 0.000000e+00 0.000000e+00
3.512658e+00 0.000000e+00 0.000000e+00
3.544304e+00 0.000000e+00 0.000000e+00
3.575949e+00 0.000000e+00 0.000000e+00
3.607595e+00 0.000000e+00 0.000000e+00
3.639241e+00 0.000000e+00 0.000000e+00
3.670886e+00 0.000000e+00 0.000000e+00
3.702532e+00 0.000000e+00 0.000000e+00
3.734177e+00 0.000000e+00 0.000000e+00
3.765823e+00 0.000000e+00 0.000000e+00
3.797468e+00 0.000000e+00 0.000000e+00
3.829114e+00 0.000000e+00 0.000000e+00
3.860759e+00 0.000000e+00 0.000000e+00
3.892405e+00 0.000000e+00 0.000000e+00
3.924051e+00 0.000000e+00 0.000000e+00
3.955696e+00 0.000000e+00 0.000000e+00
3.987342e+00 0.000000e+00 0.000000e+00
4.018987e+00 0.000000e+00 0.000000e+00
4.050633e+00 0.000000e+00 0.000000e+00
4.082278e+00 0.000000e+00 0.000000e+00
4.113924e+00 0.000000e+00 0.000000e+00
4.145570e+00 0.000000e+00 0.000000e+00
4.177215e+00 0.000000e+00 0.000000e+00
4.208861e+00 0.000000e+00 0.000000e+00
4.240506e+00 0.000000e+00 0.000000e+00
4.272152e+00 0.000000e+00 0.000000e+00
4.303797e+00 0.000000e+00 0.000000e+00
4.335443e+00 0.000000e+00 0.000000e+00
4.367089e+00 0.000000e+00 0.000000e+00
4.398734e+00 0.000000e+00 0.000000e+00
4.430380e+00 0.000000e+00 0.000000e+00
4.462025e+00 0.000000e+00 0.000000e+00
4.493671e+00 0.000000e+00 0.000000e+00
4.525316e+00 0.000000e+00 0.000000e+00
4.556962e+00 0.000000e+00 0.000000e+00
4.588608e+00 0.000000e+00 0.000000e+00
4.620253e+00 0.000000e+00 0.000000e+00
4.651899e+00 0.000000e+00 0.000000e+00
4.683544e+00 0.000000e+00 0.000000e+00
4.715190e+00 0.000000e+00 0.000000e+00
4.746835e+00 0.000000e+00 0.000000e+00
4.778481e+00 0.000000e+00 0.000000e+00
4.810127e+00 0.000000e+00 0.000000e+00
4.841772e+00 0.000000e+00 0.000000e+00
4.873418e+00 0.000000e+00 0.000000e+00
4.905063e+00 0.000000e+00 0.000000e+00
4.936709e+00 0.000000e+00 0.000000e+00
4.968354e+00 0.000000e+00 0.000000e+00
5.000000e+00 0.000000e+00 0.000000e+00
0.000000e+00 3.333333e-02 0.000000e+00
3.164557e-02 3.333333e-02 0.000000e+00
6.329114e-02 3.333333e-02 0.000000e+00
9.493671e-02 3.333333e-02 0.000000e+00
1.265823e-01 3.333333e-02 0.000000e+00
1.582278e-01 3.333333e-02 0.000000e+00
1.898734e-01 3.333333e-02 0.000000e+00
2.215190e-01 3.333333e-02 0.000000e+00
2.531646e-01 3.333333e-02 0.000000e+00
2.848101e-01 3.333333e-02 0.000000e+00
3.164557e-01 3.333333e-02 0.000000e+00
3.481013e-01 3.333333e-02 0.000000e+00
3.797468e-01 3.333333e-02 0.000000e+00
4.113924e-01 3.333333e-02 0.000000e+00
4.430380e-01 3.333333e-02 0.000000e+00
4.746835e-01 3.333333e-02 0.000000e+00
5.063291e-01 3.333333e-02 0.000000e+00
5.379747e-01 3.333333e-02 0.000000e+00
5.696203e-01 3.333333e-02 0.000000e+00
6.012658e-01 3.333333e-02 0.000000e+00
6.329114e-01 3.333333e-02 0.000000e+00
6.645570e-01 3.333333e-02 0.000000e+00
6.962025e-01 3.333333e-02 0.000000e+00
7.278481e-01 3.333333e-02 0.000000e+00
7.594937e-01 3.333333e-02 0.000000e+00
7.911392e-01 3.333333e-02 0.000000e+00
8.227848e-01 3.333333e-02 0.000000e+00
8.544304e-01 3.333333e-02 0.000000e+00
8.860759e-01 3.333333e-02 0.000000e+00
9.177215e-01 3.333333e-02 0.000000e+00
9.493671e-01 3.333333e-02 0.000000e+00
9.810127e-01 3.333333e-02 0.000000e+00
1.012658e+00 3.333333e-02 0.000000e+00
1.044304e+00 3.333333e-02 0.000000e+00
1.075949e+00 3.333333e-02 0.000000e+00
1.107595e+00 3.333333e-02 0.000000e+00
1.139241e+00 3.333333e-02 0.000000e+00
1.170886e+00 3.333333e-02 0.000000e+00
1.202532e+00 3.333333e-02 0.000000e+00
1.234177e+00 3.333333e-02 0.000000e+00
1.265823e+00 3.333333e-02 0.000000e+00
1.297468e+00 3.333333e-02 0.000000e+00
1.329114e+00 3.333333e-02 0.000000e+00
1.360759e+00 3.333333e-02 0.000000e+00
1.392405e+00 3.333333e-02 0.000000e+00
1.424051e+00 3.333333e-02 0.000000e+00
1.455696e+00 3.333333e-02 0.000000e+00
1.487342e+00 3.333333e-02 0.000000e+00
1.518987e+00 3.333333e-02 0.000000e+00
1.550633e+00 3.333333e-02 0.000000e+00
1.582278e+00 3.333333e-02 0.000000e+00
1.613924e+00 3.333333e-02 0.000000e+00
1.645570e+00 3.333333e-02 0.000000e+00
1.677215e+00 3.333333e-02 0.000000e+00
1.708861e+00 3.333333e-02 0.000000e+00
1.740506e+00 3.333333e-02 0.000000e+00
1.772152e+00 3.333333e-02 0.000000e+00
1.803797e+00 3.333333e-02 0.000000e+00
1.835443e+00 3.333333e-02 0.000000e+00
1.867089e+00 3.333333e-02 0.000000e+00
1.898734e+00 3.333333e-02 0.000000e+00
1.930380e+00 3.333333e-02 0.000000e+00
1.962025e+00 3.333333e-02 0.000000e+00
1.993671e+00 3.333333e-02 0.000000e+00
2.025316e+00 3.333333e-02 0.000000e+00
2.056962e+00 3.333333e-02 0.000000e+00
2.088608e+00 3.333333e-02 0.000000e+00
2.120253e+00 3.333333e-02 0.000000e+00
2.151899e+00 3.333333e-02 0.000000e+00
2.183544e+00 3.333333e-02 0.000000e+00
2.215190e+00 3.333333e-02 0.000000e+00
2.246835e+00 3.333333e-02 0.000000e+00
2.278481e+00 3.333333e-02 0.000000e+00
2.310127e+00 3.333333e-02 0.000000e+00
2.341772e+00 3.333333e-02 0.000000e+00
2.373418e+00 3.333333e-02 0.000000e+00
2.405063e+00 3.333333e-02 0.000000e+00
2.436709e+00 3.333333e-02 0.000000e+00
2.468354e+00 3.333333e-02 0.000000e+00
2.500000e+00 3.333333e-02 0.000000e+00
2.531646e+00 3.333333e-02 0.000000e+00
2.563291e+00 3.333333e-02 0.000000e+00
2.594937e+00 3.333333e-02 0.000000e+00
2.626582e+00 3.333333e-02 0.000000e+00
2.658228e+00 3.333333e-02 0.000000e+00
2.689873e+00 3.333333e-02 0.000000e+00
2.721519e+00 3.333333e-02 0.000000e+00
2.753165e+00 3.333333e-02 0.000000e+00
2.784810e+00 3.333333e-02 0.000000e+00
2.816456e+00 3.333333e-02 0.000000e+00
2.848101e+00 3.333333e-02 0.000000e+00
2.879747e+00 3.333333e-02 0.000000e+00
[...]
<PointData>
<DataArray Name="Velocity" type="Float64" format="ascii" NumberOfComponents="3">
0.000000e+00 0.000000e+00 0
0.000000e+00 0.000000e+00 0
0.000000e+00 0.000000e+00 0
0.000000e+00 0.000000e+00 0
0.000000e+00 0.000000e+00 0
0.000000e+00 0.000000e+00 0
0.000000e+00 0.000000e+00 0
0.000000e+00 0.000000e+00 0
0.000000e+00 0.000000e+00 0
0.000000e+00 0.000000e+00 0
0.000000e+00 0.000000e+00 0
0.000000e+00 0.000000e+00 0
0.000000e+00 0.000000e+00 0
0.000000e+00 0.000000e+00 0
0.000000e+00 0.000000e+00 0
0.000000e+00 0.000000e+00 0
0.000000e+00 0.000000e+00 0
0.000000e+00 0.000000e+00 0
0.000000e+00 0.000000e+00 0
2.119344e-17 0.000000e+00 0
0.000000e+00 0.000000e+00 0
0.000000e+00 0.000000e+00 0
0.000000e+00 0.000000e+00 0
2.119332e-17 0.000000e+00 0
0.000000e+00 0.000000e+00 0
0.000000e+00 0.000000e+00 0
0.000000e+00 0.000000e+00 0
2.119329e-17 0.000000e+00 0
0.000000e+00 0.000000e+00 0
0.000000e+00 0.000000e+00 0
0.000000e+00 0.000000e+00 0
2.119315e-17 0.000000e+00 0
0.000000e+00 0.000000e+00 0
0.000000e+00 0.000000e+00 0
0.000000e+00 0.000000e+00 0
0.000000e+00 0.000000e+00 0
0.000000e+00 0.000000e+00 0
0.000000e+00 0.000000e+00 0
4.238601e-17 0.000000e+00 0
0.000000e+00 0.000000e+00 0
0.000000e+00 0.000000e+00 0
0.000000e+00 0.000000e+00 0
0.000000e+00 0.000000e+00 0
0.000000e+00 0.000000e+00 0
0.000000e+00 0.000000e+00 0
0.000000e+00 0.000000e+00 0
4.238564e-17 0.000000e+00 0
0.000000e+00 0.000000e+00 0
0.000000e+00 0.000000e+00 0
0.000000e+00 0.000000e+00 0
0.000000e+00 0.000000e+00 0
0.000000e+00 0.000000e+00 0
0.000000e+00 0.000000e+00 0
0.000000e+00 0.000000e+00 0
4.238528e-17 0.000000e+00 0
0.000000e+00 0.000000e+00 0
0.000000e+00 0.000000e+00 0
0.000000e+00 0.000000e+00 0
0.000000e+00 0.000000e+00 0
0.000000e+00 0.000000e+00 0
0.000000e+00 0.000000e+00 0
0.000000e+00 0.000000e+00 0
4.238496e-17 0.000000e+00 0
0.000000e+00 0.000000e+00 0
0.000000e+00 0.000000e+00 0
0.000000e+00 0.000000e+00 0
0.000000e+00 0.000000e+00 0
0.000000e+00 0.000000e+00 0
0.000000e+00 0.000000e+00 0
0.000000e+00 0.000000e+00 0
0.000000e+00 0.000000e+00 0
0.000000e+00 0.000000e+00 0
0.000000e+00 0.000000e+00 0
0.000000e+00 0.000000e+00 0
0.000000e+00 0.000000e+00 0
0.000000e+00 0.000000e+00 0
0.000000e+00 0.000000e+00 0
0.000000e+00 0.000000e+00 0
0.000000e+00 0.000000e+00 0
0.000000e+00 0.000000e+00 0
0.000000e+00 0.000000e+00 0
0.000000e+00 0.000000e+00 0
0.000000e+00 0.000000e+00 0
0.000000e+00 0.000000e+00 0
0.000000e+00 0.000000e+00 0
0.000000e+00 0.000000e+00 0
0.000000e+00 0.000000e+00 0
0.000000e+00 0.000000e+00 0
0.000000e+00 0.000000e+00 0
0.000000e+00 0.000000e+00 0
0.000000e+00 0.000000e+00 0
0.000000e+00 0.000000e+00 0
0.000000e+00 0.000000e+00 0
0.000000e+00 0.000000e+00 0
0.000000e+00 0.000000e+00 0
0.000000e+00 0.000000e+00 0
0.000000e+00 0.000000e+00 0
0.000000e+00 0.000000e+00 0
0.000000e+00 0.000000e+00 0
0.000000e+00 0.000000e+00 0
0.000000e+00 0.000000e+00 0
0.000000e+00 0.000000e+00 0
0.000000e+00 0.000000e+00 0
0.000000e+00 0.000000e+00 0
0.000000e+00 0.000000e+00 0
0.000000e+00 0.000000e+00 0
0.000000e+00 0.000000e+00 0
0.000000e+00 0.000000e+00 0
0.000000e+00 0.000000e+00 0
0.000000e+00 0.000000e+00 0
0.000000e+00 0.000000e+00 0
0.000000e+00 0.000000e+00 0
0.000000e+00 0.000000e+00 0
0.000000e+00 0.000000e+00 0
0.000000e+00 0.000000e+00 0
0.000000e+00 0.000000e+00 0
0.000000e+00 0.000000e+00 0
0.000000e+00 0.000000e+00 0
0.000000e+00 0.000000e+00 0
0.000000e+00 0.000000e+00 0
0.000000e+00 0.000000e+00 0
0.000000e+00 0.000000e+00 0
0.000000e+00 0.000000e+00 0
0.000000e+00 0.000000e+00 0
0.000000e+00 0.000000e+00 0
0.000000e+00 0.000000e+00 0
0.000000e+00 0.000000e+00 0
0.000000e+00 0.000000e+00 0
0.000000e+00 0.000000e+00 0
0.000000e+00 0.000000e+00 0
0.000000e+00 0.000000e+00 0
0.000000e+00 0.000000e+00 0
0.000000e+00 0.000000e+00 0
0.000000e+00 0.000000e+00 0
0.000000e+00 0.000000e+00 0
0.000000e+00 0.000000e+00 0
0.000000e+00 0.000000e+00 0
0.000000e+00 0.000000e+00 0
0.000000e+00 0.000000e+00 0
0.000000e+00 0.000000e+00 0
0.000000e+00 0.000000e+00 0
0.000000e+00 0.000000e+00 0
0.000000e+00 0.000000e+00 0
0.000000e+00 0.000000e+00 0
0.000000e+00 0.000000e+00 0
0.000000e+00 0.000000e+00 0
0.000000e+00 0.000000e+00 0
0.000000e+00 0.000000e+00 0
0.000000e+00 0.000000e+00 0
0.000000e+00 0.000000e+00 0
0.000000e+00 0.000000e+00 0
0.000000e+00 0.000000e+00 0
0.000000e+00 0.000000e+00 0
0.000000e+00 0.000000e+00 0
0.000000e+00 0.000000e+00 0
0.000000e+00 0.000000e+00 0
0.000000e+00 0.000000e+00 0
0.000000e+00 0.000000e+00 0
0.000000e+00 0.000000e+00 0
2.040996e+00 9.622762e-09 0
2.040996e+00 2.079052e-08 0
2.040996e+00 4.517992e-08 0
2.040996e+00 6.330767e-08 0
2.040996e+00 5.933980e-08 0
2.040996e+00 3.240533e-08 0
2.040996e+00 -9.219772e-10 0
2.040996e+00 -1.909119e-08 0
2.040996e+00 -1.327160e-08 0
2.040996e+00 6.996803e-09 0
2.040996e+00 2.494597e-08 0
2.040996e+00 2.854137e-08 0
2.040996e+00 1.680358e-08 0
2.040996e+00 9.217274e-10 0
2.040996e+00 -7.061067e-09 0
2.040996e+00 -5.077791e-09 0
2.040996e+00 1.071409e-09 0
2.040996e+00 5.580371e-09 0
2.040996e+00 7.558332e-09 0
2.040996e+00 8.620073e-09 0
2.040996e+00 1.037954e-08 0
2.040996e+00 1.247175e-08 0
2.040996e+00 1.172125e-08 0
2.040996e+00 7.101772e-09 0
2.040996e+00 2.069883e-09 0
2.040996e+00 1.833616e-09 0
2.040996e+00 8.105223e-09 0
2.040996e+00 1.688442e-08 0
2.040996e+00 2.192463e-08 0
2.040996e+00 1.975195e-08 0
2.040996e+00 1.251378e-08 0
2.040996e+00 6.041441e-09 0
2.040996e+00 5.039836e-09 0
2.040996e+00 9.618539e-09 0
2.040996e+00 1.584937e-08 0
2.040996e+00 1.933890e-08 0
2.040996e+00 1.851599e-08 0
2.040996e+00 1.514408e-08 0
2.040996e+00 1.224529e-08 0
2.040996e+00 1.161118e-08 0
2.040996e+00 1.289256e-08 0
2.040996e+00 1.453374e-08 0
2.040996e+00 1.531032e-08 0
2.040996e+00 1.510884e-08 0
2.040996e+00 1.458077e-08 0
2.040996e+00 1.431094e-08 0
2.040996e+00 1.433903e-08 0
2.040996e+00 1.432289e-08 0
2.040996e+00 1.400569e-08 0
2.040996e+00 1.348608e-08 0
2.040996e+00 1.309051e-08 0
2.040996e+00 1.304015e-08 0
2.040996e+00 1.324656e-08 0
2.040996e+00 1.339828e-08 0
2.040996e+00 1.323185e-08 0
2.040996e+00 1.274447e-08 0
2.040996e+00 1.217959e-08 0
2.040996e+00 1.181700e-08 0
2.040996e+00 1.175212e-08 0
2.040996e+00 1.184082e-08 0
2.040996e+00 1.183763e-08 0
2.040996e+00 1.159670e-08 0
2.040996e+00 1.116839e-08 0
2.040996e+00 1.072905e-08 0
2.040996e+00 1.042633e-08 0
2.040996e+00 1.027896e-08 0
2.040996e+00 1.019354e-08 0
2.040996e+00 1.005646e-08 0
2.040996e+00 9.815397e-09 0
2.040996e+00 9.498274e-09 0
2.040996e+00 9.177067e-09 0
2.040996e+00 8.923368e-09 0
2.040996e+00 8.778665e-09 0
2.040996e+00 8.732458e-09 0
2.040996e+00 8.725089e-09 0
2.040996e+00 8.685556e-09 0
2.040996e+00 8.583684e-09 0
2.040996e+00 8.459134e-09 0
2.040996e+00 8.394058e-09 0
2.040996e+00 8.443981e-09 0
2.040996e+00 8.588376e-09 0
2.040996e+00 8.746727e-09 0
2.040996e+00 8.848441e-09 0
2.040996e+00 8.891199e-09 0
2.040996e+00 8.935240e-09 0
2.040996e+00 9.048651e-09 0
2.040996e+00 9.254309e-09 0
2.040996e+00 9.516121e-09 0
2.040996e+00 9.770058e-09 0
2.040996e+00 9.972036e-09 0
2.040996e+00 1.012613e-08 0
2.040996e+00 1.027529e-08 0
2.040996e+00 1.046292e-08 0
2.040996e+00 1.069425e-08 0
2.040996e+00 1.092868e-08 0
2.040996e+00 1.111097e-08 0
2.040996e+00 1.121564e-08 0
2.040996e+00 1.126623e-08 0
2.040996e+00 1.131175e-08 0
2.040996e+00 1.138193e-08 0
2.040996e+00 1.146145e-08 0
2.040996e+00 1.150553e-08 0
2.040996e+00 1.148126e-08 0
2.040996e+00 1.139567e-08 0
2.040996e+00 1.128599e-08 0
2.040995e+00 1.118534e-08 0
2.040995e+00 1.109667e-08 0
2.040995e+00 1.099585e-08 0
2.040995e+00 1.085848e-08 0
2.040995e+00 1.068215e-08 0
2.040995e+00 1.048427e-08 0
2.040995e+00 1.028289e-08 0
2.040995e+00 1.008174e-08 0
2.040995e+00 9.871307e-09 0
2.040995e+00 9.642932e-09 0
2.040995e+00 9.399515e-09 0
2.040995e+00 9.152398e-09 0
2.040995e+00 8.912435e-09 0
2.040995e+00 8.683987e-09 0
2.040995e+00 8.465818e-09 0
2.040995e+00 8.257486e-09 0
2.040995e+00 8.063078e-09 0
2.040995e+00 7.888075e-09 0
2.040995e+00 7.735145e-09 0
2.040995e+00 7.604835e-09 0
2.040995e+00 7.499144e-09 0
2.040995e+00 7.421969e-09 0
2.040995e+00 7.375328e-09 0
2.040995e+00 7.356667e-09 0
2.040995e+00 7.361380e-09 0
2.040995e+00 7.387353e-09 0
2.040995e+00 7.435475e-09 0
2.040995e+00 7.505900e-09 0
2.040995e+00 7.595212e-09 0
2.040995e+00 7.697580e-09 0
2.040995e+00 7.807599e-09 0
2.040995e+00 7.921296e-09 0
2.040995e+00 8.035232e-09 0
2.040995e+00 8.145659e-09 0
2.040995e+00 8.249073e-09 0
2.040995e+00 8.342909e-09 0
2.040995e+00 8.425413e-09 0
2.040995e+00 8.494561e-09 0
2.040995e+00 8.548006e-09 0
2.040995e+00 8.583902e-09 0
2.040995e+00 8.601313e-09 0
2.040995e+00 8.600754e-09 0
2.040995e+00 8.583136e-09 0
2.040995e+00 8.548541e-09 0
2.040995e+00 8.496365e-09 0
2.040995e+00 8.425642e-09 0
2.040995e+00 8.332754e-09 0
2.040995e+00 8.211954e-09 0
2.040995e+00 8.050460e-09 0
2.040995e+00 7.818929e-09 0
2.040995e+00 7.436099e-09 0
2.040995e+00 6.664982e-09 0
2.040995e+00 4.017502e-09 0
2.040995e+00 1.896401e-09 0
3.872727e+00 1.890700e-08 0
3.872727e+00 3.636772e-08 0
3.872727e+00 6.487670e-08 0
3.872727e+00 7.455095e-08 0
3.872727e+00 5.941875e-08 0
3.872727e+00 2.833090e-08 0
3.872727e+00 1.506242e-09 0
3.872727e+00 -5.355541e-09 0
3.872727e+00 7.026608e-09 0
3.872727e+00 2.485544e-08 0
3.872727e+00 3.319089e-08 0
3.872727e+00 2.658961e-08 0
3.872727e+00 1.195510e-08 0
3.872727e+00 1.016460e-09 0
3.872727e+00 -4.080608e-10 0
3.872727e+00 4.208999e-09 0
3.872727e+00 7.691888e-09 0
3.872727e+00 7.184481e-09 0
3.872727e+00 5.509795e-09 0
3.872727e+00 6.277402e-09 0
3.872727e+00 9.971798e-09 0
3.872727e+00 1.284921e-08 0
3.872727e+00 1.074842e-08 0
3.872727e+00 4.241304e-09 0
3.872727e+00 -1.119434e-09 0
3.872727e+00 2.791470e-10 0
3.872727e+00 8.382934e-09 0
3.872727e+00 1.733720e-08 0
3.872727e+00 2.071385e-08 0
3.872727e+00 1.671586e-08 0
3.872727e+00 9.313814e-09 0
3.872727e+00 4.645020e-09 0
3.872727e+00 6.016131e-09 0
3.872727e+00 1.179754e-08 0
3.872727e+00 1.750789e-08 0
3.872727e+00 1.970307e-08 0
3.872727e+00 1.824937e-08 0
3.872727e+00 1.555589e-08 0
3.872727e+00 1.409135e-08 0
3.872727e+00 1.456446e-08 0
3.872727e+00 1.600329e-08 0
3.872727e+00 1.710688e-08 0
3.872727e+00 1.739300e-08 0
3.872727e+00 1.726684e-08 0
3.872727e+00 1.729913e-08 0
3.872727e+00 1.759335e-08 0
3.872727e+00 1.778787e-08 0
3.872727e+00 1.752471e-08 0
3.872727e+00 1.684519e-08 0
3.872727e+00 1.615965e-08 0
3.872727e+00 1.588049e-08 0
3.872727e+00 1.607933e-08 0
3.872727e+00 1.644569e-08 0
3.872727e+00 1.654546e-08 0
3.872727e+00 1.615370e-08 0
3.872727e+00 1.540736e-08 0
3.872727e+00 1.467857e-08 0
3.872727e+00 1.428102e-08 0
3.872727e+00 1.424042e-08 0
3.872727e+00 1.430099e-08 0
3.872727e+00 1.414841e-08 0
3.872727e+00 1.365755e-08 0
3.872727e+00 1.296400e-08 0
3.872727e+00 1.232053e-08 0
3.872727e+00 1.188507e-08 0
3.872727e+00 1.162122e-08 0
3.872727e+00 1.137073e-08 0
3.872727e+00 1.100537e-08 0
3.872727e+00 1.051835e-08 0
3.872727e+00 9.995289e-09 0
3.872727e+00 9.530072e-09 0
3.872727e+00 9.170661e-09 0
3.872727e+00 8.913520e-09 0
3.872727e+00 8.726434e-09 0
3.872727e+00 8.566324e-09 0
3.872727e+00 8.391673e-09 0
3.872727e+00 8.187969e-09 0
3.872727e+00 7.988203e-09 0
3.872727e+00 7.857568e-09 0
3.872727e+00 7.843761e-09 0
3.872727e+00 7.931838e-09 0
3.872727e+00 8.052938e-09 0
3.872727e+00 8.143106e-09 0
3.872727e+00 8.197853e-09 0
3.872727e+00 8.275905e-09 0
3.872727e+00 8.448723e-09 0
3.872727e+00 8.741982e-09 0
3.872727e+00 9.120599e-09 0
3.872727e+00 9.519632e-09 0
3.872727e+00 9.889105e-09 0
3.872727e+00 1.022184e-08 0
3.872727e+00 1.054913e-08 0
3.872727e+00 1.090954e-08 0
3.872727e+00 1.131340e-08 0
3.872727e+00 1.172945e-08 0
3.872727e+00 1.210485e-08 0
3.872727e+00 1.240375e-08 0
3.872727e+00 1.263230e-08 0
3.872727e+00 1.282828e-08 0
3.872727e+00 1.302464e-08 0
3.872727e+00 1.321971e-08 0
3.872727e+00 1.337954e-08 0
3.872727e+00 1.346789e-08 0
3.872727e+00 1.347504e-08 0
3.872727e+00 1.342329e-08 0
3.872727e+00 1.334546e-08 0
3.872727e+00 1.325621e-08 0
3.872727e+00 1.314412e-08 0
3.872727e+00 1.298673e-08 0
3.872727e+00 1.277176e-08 0
3.872727e+00 1.250637e-08 0
3.872727e+00 1.220798e-08 0
3.872727e+00 1.188945e-08 0
3.872727e+00 1.155314e-08 0
3.872727e+00 1.119509e-08 0
3.872727e+00 1.081464e-08 0
3.872727e+00 1.042097e-08 0
3.872727e+00 1.002861e-08 0
3.872727e+00 9.648713e-09 0
3.872727e+00 9.286594e-09 0
3.872727e+00 8.944881e-09 0
3.872727e+00 8.627160e-09 0
3.872727e+00 8.339016e-09 0
3.872727e+00 8.086132e-09 0
3.872727e+00 7.872312e-09 0
3.872727e+00 7.699535e-09 0
3.872727e+00 7.568773e-09 0
3.872727e+00 7.479475e-09 0
3.872727e+00 7.428463e-09 0
3.872727e+00 7.410582e-09 0
3.872727e+00 7.420891e-09 0
3.872727e+00 7.455982e-09 0
3.872727e+00 7.513065e-09 0
3.872727e+00 7.587921e-09 0
3.872727e+00 7.674146e-09 0
3.872727e+00 7.764489e-09 0
3.872727e+00 7.852805e-09 0
3.872727e+00 7.934915e-09 0
3.872727e+00 8.008125e-09 0
3.872727e+00 8.070578e-09 0
3.872727e+00 8.121003e-09 0
3.872727e+00 8.158592e-09 0
3.872727e+00 8.182686e-09 0
3.872727e+00 8.192819e-09 0
3.872727e+00 8.188850e-09 0
3.872727e+00 8.171037e-09 0
3.872727e+00 8.140645e-09 0
3.872727e+00 8.098315e-09 0
3.872727e+00 8.043976e-09 0
3.872727e+00 7.976884e-09 0
3.872727e+00 7.893005e-09 0
3.872727e+00 7.786097e-09 0
3.872727e+00 7.643468e-09 0
3.872727e+00 7.441247e-09 0
3.872727e+00 7.132330e-09 0
3.872727e+00 6.617923e-09 0
3.872727e+00 5.701899e-09 0
3.872727e+00 3.994806e-09 0
3.872727e+00 2.878636e-09 0
5.508014e+00 2.465691e-08 0
5.508014e+00 4.590324e-08 0
5.508014e+00 7.469611e-08 0
5.508014e+00 7.472528e-08 0
5.508014e+00 5.041824e-08 0
5.508014e+00 1.950929e-08 0
5.508014e+00 2.899886e-09 0
5.508014e+00 8.176385e-09 0
5.508014e+00 2.525830e-08 0
5.508014e+00 3.756262e-08 0
5.508014e+00 3.500253e-08 0
5.508014e+00 2.053878e-08 0
5.508014e+00 6.346340e-09 0
5.508014e+00 2.169013e-09 0
5.508014e+00 7.087480e-09 0
5.508014e+00 1.240944e-08 0
5.508014e+00 1.165133e-08 0
5.508014e+00 6.374572e-09 0
5.508014e+00 2.905663e-09 0
5.508014e+00 5.188410e-09 0
5.508014e+00 1.086118e-08 0
5.508014e+00 1.334258e-08 0
5.508014e+00 8.789089e-09 0
5.508014e+00 4.289007e-10 0
5.508014e+00 -4.030730e-09 0
5.508014e+00 1.696875e-10 0
5.508014e+00 1.019179e-08 0
5.508014e+00 1.846703e-08 0
5.508014e+00 1.925230e-08 0
5.508014e+00 1.315093e-08 0
5.508014e+00 6.038184e-09 0
5.508014e+00 3.793091e-09 0
5.508014e+00 7.733150e-09 0
5.508014e+00 1.438437e-08 0
5.508014e+00 1.905346e-08 0
5.508014e+00 1.960621e-08 0
5.508014e+00 1.738771e-08 0
5.508014e+00 1.523267e-08 0
5.508014e+00 1.489844e-08 0
5.508014e+00 1.612234e-08 0
5.508014e+00 1.757552e-08 0
5.508014e+00 1.834252e-08 0
5.508014e+00 1.851979e-08 0
5.508014e+00 1.870475e-08 0
5.508014e+00 1.919058e-08 0
5.508014e+00 1.970483e-08 0
5.508014e+00 1.979165e-08 0
5.508014e+00 1.932018e-08 0
5.508014e+00 1.861392e-08 0
5.508014e+00 1.815022e-08 0
5.508014e+00 1.816330e-08 0
5.508014e+00 1.848709e-08 0
5.508014e+00 1.871124e-08 0
5.508014e+00 1.848570e-08 0
5.508014e+00 1.775151e-08 0
5.508014e+00 1.676145e-08 0
5.508014e+00 1.589459e-08 0
5.508014e+00 1.539248e-08 0
5.508014e+00 1.519737e-08 0
5.508014e+00 1.501187e-08 0
5.508014e+00 1.454017e-08 0
5.508014e+00 1.371993e-08 0
5.508014e+00 1.275554e-08 0
5.508014e+00 1.193548e-08 0
5.508014e+00 1.139948e-08 0
5.508014e+00 1.105479e-08 0
5.508014e+00 1.069473e-08 0
5.508014e+00 1.019165e-08 0
5.508014e+00 9.584597e-09 0
5.508014e+00 9.010882e-09 0
5.508014e+00 8.575909e-09 0
5.508014e+00 8.282402e-09 0
5.508014e+00 8.065303e-09 0
5.508014e+00 7.865954e-09 0
5.508014e+00 7.666158e-09 0
5.508014e+00 7.472983e-09 0
5.508014e+00 7.292801e-09 0
5.508014e+00 7.131344e-09 0
5.508014e+00 7.009148e-09 0
5.508014e+00 6.954464e-09 0
5.508014e+00 6.973971e-09 0
5.508014e+00 7.038447e-09 0
5.508014e+00 7.107566e-09 0
5.508014e+00 7.173752e-09 0
5.508014e+00 7.277325e-09 0
5.508014e+00 7.475736e-09 0
5.508014e+00 7.798788e-09 0
5.508014e+00 8.226558e-09 0
5.508014e+00 8.705706e-09 0
5.508014e+00 9.186470e-09 0
5.508014e+00 9.648690e-09 0
5.508014e+00 1.010347e-08 0
5.508014e+00 1.057496e-08 0
5.508014e+00 1.107585e-08 0
5.508014e+00 1.159185e-08 0
5.508014e+00 1.208607e-08 0
5.508014e+00 1.252175e-08 0
5.508014e+00 1.288602e-08 0
5.508014e+00 1.319470e-08 0
5.508014e+00 1.347391e-08 0
5.508014e+00 1.373527e-08 0
5.508014e+00 1.396568e-08 0
5.508014e+00 1.413751e-08 0
5.508014e+00 1.423059e-08 0
5.508014e+00 1.424580e-08 0
5.508014e+00 1.419995e-08 0
5.508014e+00 1.411063e-08 0
5.508014e+00 1.398284e-08 0
5.508014e+00 1.380671e-08 0
5.508014e+00 1.356692e-08 0
5.508014e+00 1.325619e-08 0
5.508014e+00 1.288239e-08 0
5.508014e+00 1.246156e-08 0
5.508014e+00 1.200682e-08 0
5.508014e+00 1.152461e-08 0
5.508014e+00 1.101828e-08 0
5.508014e+00 1.049363e-08 0
5.508014e+00 9.962088e-09 0
5.508014e+00 9.439225e-09 0
5.508014e+00 8.939283e-09 0
5.508014e+00 8.471903e-09 0
5.508014e+00 8.043123e-09 0
5.508014e+00 7.657521e-09 0
5.508014e+00 7.319838e-09 0
5.508014e+00 7.035098e-09 0
5.508014e+00 6.807018e-09 0
5.508014e+00 6.636357e-09 0
5.508014e+00 6.520317e-09 0
5.508014e+00 6.453236e-09 0
5.508014e+00 6.427938e-09 0
5.508014e+00 6.436840e-09 0
5.508014e+00 6.472663e-09 0
5.508014e+00 6.528624e-09 0
5.508014e+00 6.598125e-09 0
5.508014e+00 6.674361e-09 0
5.508014e+00 6.750344e-09 0
5.508014e+00 6.819643e-09 0
5.508014e+00 6.877358e-09 0
5.508014e+00 6.920716e-09 0
5.508014e+00 6.948892e-09 0
5.508014e+00 6.962366e-09 0
5.508014e+00 6.961982e-09 0
5.508014e+00 6.948599e-09 0
5.508014e+00 6.923280e-09 0
5.508014e+00 6.887214e-09 0
5.508014e+00 6.842049e-09 0
5.508014e+00 6.789102e-09 0
5.508014e+00 6.728939e-09 0
5.508014e+00 6.661107e-09 0
5.508014e+00 6.583244e-09 0
5.508014e+00 6.490589e-09 0
5.508014e+00 6.374698e-09 0
5.508014e+00 6.221275e-09 0
5.508014e+00 6.006874e-09 0
5.508014e+00 5.693387e-09 0
5.508014e+00 5.225901e-09 0
5.508014e+00 4.560643e-09 0
5.508014e+00 3.607685e-09 0
5.508014e+00 3.039924e-09 0
6.959385e+00 2.578660e-08 0
6.959385e+00 4.727154e-08 0
6.959385e+00 7.122351e-08 0
6.959385e+00 6.077883e-08 0
6.959385e+00 3.082000e-08 0
6.959385e+00 6.039348e-09 0
6.959385e+00 3.719630e-09 0
6.959385e+00 2.050415e-08 0
6.959385e+00 3.892674e-08 0
6.959385e+00 4.291377e-08 0
6.959385e+00 2.991529e-08 0
6.959385e+00 1.142444e-08 0
6.959385e+00 1.940186e-09 0
6.959385e+00 5.908183e-09 0
6.959385e+00 1.504090e-08 0
6.959385e+00 1.800171e-08 0
6.959385e+00 1.187580e-08 0
6.959385e+00 3.561234e-09 0
6.959385e+00 1.121502e-09 0
6.959385e+00 6.332767e-09 0
6.959385e+00 1.284361e-08 0
6.959385e+00 1.254370e-08 0
6.959385e+00 4.117859e-09 0
6.959385e+00 -5.317971e-09 0
6.959385e+00 -6.877627e-09 0
6.959385e+00 1.419218e-09 0
6.959385e+00 1.311271e-08 0
6.959385e+00 1.941383e-08 0
6.959385e+00 1.661614e-08 0
6.959385e+00 8.608180e-09 0
6.959385e+00 2.836236e-09 0
6.959385e+00 3.874686e-09 0
6.959385e+00 1.034902e-08 0
6.959385e+00 1.713609e-08 0
6.959385e+00 2.008489e-08 0
6.959385e+00 1.892499e-08 0
6.959385e+00 1.640184e-08 0
6.959385e+00 1.527506e-08 0
6.959385e+00 1.619934e-08 0
6.959385e+00 1.797278e-08 0
6.959385e+00 1.922898e-08 0
6.959385e+00 1.967424e-08 0
6.959385e+00 1.992172e-08 0
6.959385e+00 2.051368e-08 0
6.959385e+00 2.130568e-08 0
6.959385e+00 2.172339e-08 0
6.959385e+00 2.143603e-08 0
6.959385e+00 2.069710e-08 0
6.959385e+00 2.008266e-08 0
6.959385e+00 1.997753e-08 0
6.959385e+00 2.030677e-08 0
6.959385e+00 2.067143e-08 0
6.959385e+00 2.067586e-08 0
6.959385e+00 2.016632e-08 0
6.959385e+00 1.926917e-08 0
6.959385e+00 1.827950e-08 0
6.959385e+00 1.748929e-08 0
6.959385e+00 1.702331e-08 0
6.959385e+00 1.675867e-08 0
6.959385e+00 1.640149e-08 0
6.959385e+00 1.570010e-08 0
6.959385e+00 1.464378e-08 0
6.959385e+00 1.347753e-08 0
6.959385e+00 1.250653e-08 0
6.959385e+00 1.185408e-08 0
6.959385e+00 1.138467e-08 0
6.959385e+00 1.085241e-08 0
6.959385e+00 1.012445e-08 0
6.959385e+00 9.278534e-09 0
6.959385e+00 8.508046e-09 0
6.959385e+00 7.942254e-09 0
6.959385e+00 7.556299e-09 0
6.959385e+00 7.230269e-09 0
6.959385e+00 6.872373e-09 0