<?xml version="1.0"?>
<VTKFile type="StructuredGrid">
<StructuredGrid WholeExtent="0 158 0 30 0 0 ">
<Piece Extent="0 158 0 30 0 0 ">
<Points>
<DataArray type="Float64" format="ascii" NumberOfComponents="3">
0.000000e+00 0.000000e+00 0.000000e+00
3.164557e-02 0.000000e+00 0.000000e+00
6.329114e-02 0.000000e+00 0.000000e+00
9.493671e-02 0.000000e+00 0.000000e+00
1.265823e-01 0.000000e+00 0.000000e+00
1.582278e-01 0.000000e+00 0.000000e+00
1.898734e-01 0.000000e+00 0.000000e+00
2.215190e-01 0.000000e+00 0.000000e+00
2.531646e-01 0.000000e+00 0.000000e+00
2.848101e-01 0.000000e+00 0.000000e+00
3.164557e-01 0.000000e+00 0.000000e+00
3.481013e-01 0.000000e+00 0.000000e+00
3.797468e-01 0.000000e+00 0.000000e+00
4.113924e-01 0.000000e+00 0.000000e+00
4.430380e-01 0.000000e+00 0.000000e+00
4.746835e-01 0.000000e+00 0.000000e+00
5.063291e-01 0.000000e+00 0.000000e+00
5.379747e-01 0.000000e+00 0.000000e+00
5.696203e-01 0.000000e+00 0.000000e+00
6.012658e-01 0.000000e+00 0.000000e+00
6.329114e-01 0.000000e+00 0.000000e+00
6.645570e-01 0.000000e+00 0.000000e+00
6.962025e-01 0.000000e+00 0.000000e+00
7.278481e-01 0.000000e+00 0.000000e+00
7.594937e-01 0.000000e+00 0.000000e+00
7.911392e-01 0.000000e+00 0.000000e+00
8.227848e-01 0.000000e+00 0.000000e+00
8.544304e-01 0.000000e+00 0.000000e+00
8.860759e-01 0.000000e+00 0.000000e+00
9.177215e-01 0.000000e+00 0.000000e+00
9.493671e-01 0.000000e+00 0.000000e+00
9.810127e-01 0.000000e+00 0.000000e+00
1.012658e+00 0.000000e+00 0.000000e+00
1.044304e+00 0.000000e+00 0.000000e+00
1.075949e+00 0.000000e+00 0.000000e+00
1.107595e+00 0.000000e+00 0.000000e+00
1.139241e+00 0.000000e+00 0.000000e+00
1.170886e+00 0.000000e+00 0.000000e+00
1.202532e+00 0.000000e+00 0.000000e+00
1.234177e+00 0.000000e+00 0.000000e+00
1.265823e+00 0.000000e+00 0.000000e+00
1.297468e+00 0.000000e+00 0.000000e+00
1.329114e+00 0.000000e+00 0.000000e+00
1.360759e+00 0.000000e+00 0.000000e+00
1.392405e+00 0.000000e+00 0.000000e+00
1.424051e+00 0.000000e+00 0.000000e+00
1.455696e+00 0.000000e+00 0.000000e+00
1.487342e+00 0.000000e+00 0.000000e+00
1.518987e+00 0.000000e+00 0.000000e+00
1.550633e+00 0.000000e+00 0.000000e+00
1.582278e+00 0.000000e+00 0.000000e+00
1.613924e+00 0.000000e+00 0.000000e+00
1.645570e+00 0.000000e+00 0.000000e+00
1.677215e+00 0.000000e+00 0.000000e+00
1.708861e+00 0.000000e+00 0.000000e+00
1.740506e+00 0.000000e+00 0.000000e+00
1.772152e+00 0.000000e+00 0.000000e+00
1.803797e+00 0.000000e+00 0.000000e+00
1.835443e+00 0.000000e+00 0.000000e+00
1.867089e+00 0.000000e+00 0.000000e+00
1.898734e+00 0.000000e+00 0.000000e+00
1.930380e+00 0.000000e+00 0.000000e+00
1.962025e+00 0.000000e+00 0.000000e+00
1.993671e+00 0.000000e+00 0.000000e+00
2.025316e+00 0.000000e+00 0.000000e+00
2.056962e+00 0.000000e+00 0.000000e+00
2.088608e+00 0.000000e+00 0.000000e+00
2.120253e+00 0.000000e+00 0.000000e+00
2.151899e+00 0.000000e+00 0.000000e+00
2.183544e+00 0.000000e+00 0.000000e+00
2.215190e+00 0.000000e+00 0.000000e+00
2.246835e+00 0.000000e+00 0.000000e+00
2.278481e+00 0.000000e+00 0.000000e+00
2.310127e+00 0.000000e+00 0.000000e+00
2.341772e+00 0.000000e+00 0.000000e+00
2.373418e+00 0.000000e+00 0.000000e+00
2.405063e+00 0.000000e+00 0.000000e+00
2.436709e+00 0.000000e+00 0.000000e+00
2.468354e+00 0.000000e+00 0.000000e+00
2.500000e+00 0.000000e+00 0.000000e+00
2.531646e+00 0.000000e+00 0.000000e+00
2.563291e+00 0.000000e+00 0.000000e+00
2.594937e+00 0.000000e+00 0.000000e+00
2.626582e+00 0.000000e+00 0.000000e+00
2.658228e+00 0.000000e+00 0.000000e+00
2.689873e+00 0.000000e+00 0.000000e+00
2.721519e+00 0.000000e+00 0.000000e+00
2.753165e+00 0.000000e+00 0.000000e+00
2.784810e+00 0.000000e+00 0.000000e+00
2.816456e+00 0.000000e+00 0.000000e+00
2.848101e+00 0.000000e+00 0.000000e+00
2.879747e+00 0.000000e+00 0.000000e+00
2.911392e+00 0.000000e+00 0.000000e+00
2.943038e+00 0.000000e+00 0.000000e+00
2.974684e+00 0.000000e+00 0.000000e+00
3.006329e+00 0.000000e+00 0.000000e+00
3.037975e+00 0.000000e+00 0.000000e+00
3.069620e+00 0.000000e+00 0.000000e+00
3.101266e+00 0.000000e+00 0.000000e+00
3.132911e+00 0.000000e+00 0.000000e+00
3.164557e+00 0.000000e+00 0.000000e+00
3.196203e+00 0.000000e+00 0.000000e+00
3.227848e+00 0.000000e+00 0.000000e+00
3.259494e+00 0.000000e+00 0.000000e+00
3.291139e+00 0.000000e+00 0.000000e+00
3.322785e+00 0.000000e+00 0.000000e+00
3.354430e+00 0.000000e+00 0.000000e+00
3.386076e+00 0.000000e+00 0.000000e+00
3.417722e+00 0.000000e+00 0.000000e+00
3.449367e+00 0.000000e+00 0.000000e+00
3.481013e+00 0.000000e+00 0.000000e+00
3.512658e+00 0.000000e+00 0.000000e+00
3.544304e+00 0.000000e+00 0.000000e+00
3.575949e+00 0.000000e+00 0.000000e+00
3.607595e+00 0.000000e+00 0.000000e+00
3.639241e+00 0.000000e+00 0.000000e+00
3.670886e+00 0.000000e+00 0.000000e+00
3.702532e+00 0.000000e+00 0.000000e+00
3.734177e+00 0.000000e+00 0.000000e+00
3.765823e+00 0.000000e+00 0.000000e+00
3.797468e+00 0.000000e+00 0.000000e+00
3.829114e+00 0.000000e+00 0.000000e+00
3.860759e+00 0.000000e+00 0.000000e+00
3.892405e+00 0.000000e+00 0.000000e+00
3.924051e+00 0.000000e+00 0.000000e+00
3.955696e+00 0.000000e+00 0.000000e+00
3.987342e+00 0.000000e+00 0.000000e+00
4.018987e+00 0.000000e+00 0.000000e+00
4.050633e+00 0.000000e+00 0.000000e+00
4.082278e+00 0.000000e+00 0.000000e+00
4.113924e+00 0.000000e+00 0.000000e+00
4.145570e+00 0.000000e+00 0.000000e+00
4.177215e+00 0.000000e+00 0.000000e+00
4.208861e+00 0.000000e+00 0.000000e+00
4.240506e+00 0.000000e+00 0.000000e+00
4.272152e+00 0.000000e+00 0.000000e+00
4.303797e+00 0.000000e+00 0.000000e+00
4.335443e+00 0.000000e+00 0.000000e+00
4.367089e+00 0.000000e+00 0.000000e+00
4.398734e+00 0.000000e+00 0.000000e+00
4.430380e+00 0.000000e+00 0.000000e+00
4.462025e+00 0.000000e+00 0.000000e+00
4.493671e+00 0.000000e+00 0.000000e+00
4.525316e+00 0.000000e+00 0.000000e+00
4.556962e+00 0.000000e+00 0.000000e+00
4.588608e+00 0.000000e+00 0.000000e+00
4.620253e+00 0.000000e+00 0.000000e+00
4.651899e+00 0.000000e+00 0.000000e+00
4.683544e+00 0.000000e+00 0.000000e+00
4.715190e+00 0.000000e+00 0.000000e+00
4.746835e+00 0.000000e+00 0.000000e+00
4.778481e+00 0.000000e+00 0.000000e+00
4.810127e+00 0.000000e+00 0.000000e+00
4.841772e+00 0.000000e+00 0.000000e+00
4.873418e+00 0.000000e+00 0.000000e+00
4.905063e+00 0.000000e+00 0.000000e+00
4.936709e+00 0.000000e+00 0.000000e+00
4.968354e+00 0.000000e+00 0.000000e+00
5.000000e+00 0.000000e+00 0.000000e+00
0.000000e+00 3.333333e-02 0.000000e+00
3.164557e-02 3.333333e-02 0.000000e+00
6.329114e-02 3.333333e-02 0.000000e+00
9.493671e-02 3.333333e-02 0.000000e+00
1.265823e-01 3.333333e-02 0.000000e+00
1.582278e-01 3.333333e-02 0.000000e+00
1.898734e-01 3.333333e-02 0.000000e+00
2.215190e-01 3.333333e-02 0.000000e+00
2.531646e-01 3.333333e-02 0.000000e+00
2.848101e-01 3.333333e-02 0.000000e+00
3.164557e-01 3.333333e-02 0.000000e+00
3.481013e-01 3.333333e-02 0.000000e+00
3.797468e-01 3.333333e-02 0.000000e+00
4.113924e-01 3.333333e-02 0.000000e+00
4.430380e-01 3.333333e-02 0.000000e+00
4.746835e-01 3.333333e-02 0.000000e+00
5.063291e-01 3.333333e-02 0.000000e+00
5.379747e-01 3.333333e-02 0.000000e+00
5.696203e-01 3.333333e-02 0.000000e+00
6.012658e-01 3.333333e-02 0.000000e+00
6.329114e-01 3.333333e-02 0.000000e+00
6.645570e-01 3.333333e-02 0.000000e+00
6.962025e-01 3.333333e-02 0.000000e+00
7.278481e-01 3.333333e-02 0.000000e+00
7.594937e-01 3.333333e-02 0.000000e+00
7.911392e-01 3.333333e-02 0.000000e+00
8.227848e-01 3.333333e-02 0.000000e+00
8.544304e-01 3.333333e-02 0.000000e+00
8.860759e-01 3.333333e-02 0.000000e+00
9.177215e-01 3.333333e-02 0.000000e+00
9.493671e-01 3.333333e-02 0.000000e+00
9.810127e-01 3.333333e-02 0.000000e+00
1.012658e+00 3.333333e-02 0.000000e+00
1.044304e+00 3.333333e-02 0.000000e+00
1.075949e+00 3.333333e-02 0.000000e+00
1.107595e+00 3.333333e-02 0.000000e+00
1.139241e+00 3.333333e-02 0.000000e+00
1.170886e+00 3.333333e-02 0.000000e+00
1.202532e+00 3.333333e-02 0.000000e+00
1.234177e+00 3.333333e-02 0.000000e+00
1.265823e+00 3.333333e-02 0.000000e+00
1.297468e+00 3.333333e-02 0.000000e+00
1.329114e+00 3.333333e-02 0.000000e+00
1.360759e+00 3.333333e-02 0.000000e+00
1.392405e+00 3.333333e-02 0.000000e+00
1.424051e+00 3.333333e-02 0.000000e+00
1.455696e+00 3.333333e-02 0.000000e+00
1.487342e+00 3.333333e-02 0.000000e+00
1.518987e+00 3.333333e-02 0.000000e+00
1.550633e+00 3.333333e-02 0.000000e+00
1.582278e+00 3.333333e-02 0.000000e+00
1.613924e+00 3.333333e-02 0.000000e+00
1.645570e+00 3.333333e-02 0.000000e+00
1.677215e+00 3.333333e-02 0.000000e+00
1.708861e+00 3.333333e-02 0.000000e+00
1.740506e+00 3.333333e-02 0.000000e+00
1.772152e+00 3.333333e-02 0.000000e+00
1.803797e+00 3.333333e-02 0.000000e+00
1.835443e+00 3.333333e-02 0.000000e+00
1.867089e+00 3.333333e-02 0.000000e+00
1.898734e+00 3.333333e-02 0.000000e+00
1.930380e+00 3.333333e-02 0.000000e+00
1.962025e+00 3.333333e-02 0.000000e+00
1.993671e+00 3.333333e-02 0.000000e+00
2.025316e+00 3.333333e-02 0.000000e+00
2.056962e+00 3.333333e-02 0.000000e+00
2.088608e+00 3.333333e-02 0.000000e+00
2.120253e+00 3.333333e-02 0.000000e+00
2.151899e+00 3.333333e-02 0.000000e+00
2.183544e+00 3.333333e-02 0.000000e+00
2.215190e+00 3.333333e-02 0.000000e+00
2.246835e+00 3.333333e-02 0.000000e+00
2.278481e+00 3.333333e-02 0.000000e+00
2.310127e+00 3.333333e-02 0.000000e+00
2.341772e+00 3.333333e-02 0.000000e+00
2.373418e+00 3.333333e-02 0.000000e+00
2.405063e+00 3.333333e-02 0.000000e+00
2.436709e+00 3.333333e-02 0.000000e+00
2.468354e+00 3.333333e-02 0.000000e+00
2.500000e+00 3.333333e-02 0.000000e+00
2.531646e+00 3.333333e-02 0.000000e+00
2.563291e+00 3.333333e-02 0.000000e+00
2.594937e+00 3.333333e-02 0.000000e+00
2.626582e+00 3.333333e-02 0.000000e+00
2.658228e+00 3.333333e-02 0.000000e+00
2.689873e+00 3.333333e-02 0.000000e+00
2.721519e+00 3.333333e-02 0.000000e+00
2.753165e+00 3.333333e-02 0.000000e+00
2.784810e+00 3.333333e-02 0.000000e+00
2.816456e+00 3.333333e-02 0.000000e+00
2.848101e+00 3.333333e-02 0.000000e+00
2.879747e+00 3.333333e-02 0.000000e+00
[...]
<PointData>
<DataArray Name="Velocity" type="Float64" format="ascii" NumberOfComponents="3">
0.000000e+00 0.000000e+00 0
0.000000e+00 0.000000e+00 0
0.000000e+00 0.000000e+00 0
0.000000e+00 0.000000e+00 0
0.000000e+00 0.000000e+00 0
0.000000e+00 0.000000e+00 0
0.000000e+00 0.000000e+00 0
0.000000e+00 0.000000e+00 0
0.000000e+00 0.000000e+00 0
0.000000e+00 0.000000e+00 0
0.000000e+00 0.000000e+00 0
0.000000e+00 0.000000e+00 0
0.000000e+00 0.000000e+00 0
0.000000e+00 0.000000e+00 0
0.000000e+00 0.000000e+00 0
0.000000e+00 0.000000e+00 0
0.000000e+00 0.000000e+00 0
0.000000e+00 0.000000e+00 0
0.000000e+00 0.000000e+00 0
-2.465916e-17 0.000000e+00 0
0.000000e+00 0.000000e+00 0
0.000000e+00 0.000000e+00 0
0.000000e+00 0.000000e+00 0
-2.465921e-17 0.000000e+00 0
0.000000e+00 0.000000e+00 0
0.000000e+00 0.000000e+00 0
0.000000e+00 0.000000e+00 0
-2.465924e-17 0.000000e+00 0
0.000000e+00 0.000000e+00 0
0.000000e+00 0.000000e+00 0
0.000000e+00 0.000000e+00 0
-2.465933e-17 0.000000e+00 0
0.000000e+00 0.000000e+00 0
0.000000e+00 0.000000e+00 0
0.000000e+00 0.000000e+00 0
0.000000e+00 0.000000e+00 0
0.000000e+00 0.000000e+00 0
0.000000e+00 0.000000e+00 0
-4.931877e-17 0.000000e+00 0
0.000000e+00 0.000000e+00 0
0.000000e+00 0.000000e+00 0
0.000000e+00 0.000000e+00 0
0.000000e+00 0.000000e+00 0
0.000000e+00 0.000000e+00 0
0.000000e+00 0.000000e+00 0
0.000000e+00 0.000000e+00 0
-4.931896e-17 0.000000e+00 0
0.000000e+00 0.000000e+00 0
0.000000e+00 0.000000e+00 0
0.000000e+00 0.000000e+00 0
0.000000e+00 0.000000e+00 0
0.000000e+00 0.000000e+00 0
0.000000e+00 0.000000e+00 0
0.000000e+00 0.000000e+00 0
-4.931916e-17 0.000000e+00 0
0.000000e+00 0.000000e+00 0
0.000000e+00 0.000000e+00 0
0.000000e+00 0.000000e+00 0
0.000000e+00 0.000000e+00 0
0.000000e+00 0.000000e+00 0
0.000000e+00 0.000000e+00 0
0.000000e+00 0.000000e+00 0
-4.931938e-17 0.000000e+00 0
0.000000e+00 0.000000e+00 0
0.000000e+00 0.000000e+00 0
0.000000e+00 0.000000e+00 0
0.000000e+00 0.000000e+00 0
0.000000e+00 0.000000e+00 0
0.000000e+00 0.000000e+00 0
0.000000e+00 0.000000e+00 0
0.000000e+00 0.000000e+00 0
0.000000e+00 0.000000e+00 0
0.000000e+00 0.000000e+00 0
0.000000e+00 0.000000e+00 0
0.000000e+00 0.000000e+00 0
0.000000e+00 0.000000e+00 0
0.000000e+00 0.000000e+00 0
0.000000e+00 0.000000e+00 0
0.000000e+00 0.000000e+00 0
0.000000e+00 0.000000e+00 0
0.000000e+00 0.000000e+00 0
0.000000e+00 0.000000e+00 0
0.000000e+00 0.000000e+00 0
0.000000e+00 0.000000e+00 0
0.000000e+00 0.000000e+00 0
0.000000e+00 0.000000e+00 0
0.000000e+00 0.000000e+00 0
0.000000e+00 0.000000e+00 0
0.000000e+00 0.000000e+00 0
0.000000e+00 0.000000e+00 0
0.000000e+00 0.000000e+00 0
0.000000e+00 0.000000e+00 0
0.000000e+00 0.000000e+00 0
0.000000e+00 0.000000e+00 0
0.000000e+00 0.000000e+00 0
0.000000e+00 0.000000e+00 0
0.000000e+00 0.000000e+00 0
0.000000e+00 0.000000e+00 0
0.000000e+00 0.000000e+00 0
0.000000e+00 0.000000e+00 0
0.000000e+00 0.000000e+00 0
0.000000e+00 0.000000e+00 0
0.000000e+00 0.000000e+00 0
0.000000e+00 0.000000e+00 0
0.000000e+00 0.000000e+00 0
0.000000e+00 0.000000e+00 0
0.000000e+00 0.000000e+00 0
0.000000e+00 0.000000e+00 0
0.000000e+00 0.000000e+00 0
0.000000e+00 0.000000e+00 0
0.000000e+00 0.000000e+00 0
0.000000e+00 0.000000e+00 0
0.000000e+00 0.000000e+00 0
0.000000e+00 0.000000e+00 0
0.000000e+00 0.000000e+00 0
0.000000e+00 0.000000e+00 0
0.000000e+00 0.000000e+00 0
0.000000e+00 0.000000e+00 0
0.000000e+00 0.000000e+00 0
0.000000e+00 0.000000e+00 0
0.000000e+00 0.000000e+00 0
0.000000e+00 0.000000e+00 0
0.000000e+00 0.000000e+00 0
0.000000e+00 0.000000e+00 0
0.000000e+00 0.000000e+00 0
0.000000e+00 0.000000e+00 0
0.000000e+00 0.000000e+00 0
0.000000e+00 0.000000e+00 0
0.000000e+00 0.000000e+00 0
0.000000e+00 0.000000e+00 0
0.000000e+00 0.000000e+00 0
0.000000e+00 0.000000e+00 0
0.000000e+00 0.000000e+00 0
0.000000e+00 0.000000e+00 0
0.000000e+00 0.000000e+00 0
0.000000e+00 0.000000e+00 0
0.000000e+00 0.000000e+00 0
0.000000e+00 0.000000e+00 0
0.000000e+00 0.000000e+00 0
0.000000e+00 0.000000e+00 0
0.000000e+00 0.000000e+00 0
0.000000e+00 0.000000e+00 0
0.000000e+00 0.000000e+00 0
0.000000e+00 0.000000e+00 0
0.000000e+00 0.000000e+00 0
0.000000e+00 0.000000e+00 0
0.000000e+00 0.000000e+00 0
0.000000e+00 0.000000e+00 0
0.000000e+00 0.000000e+00 0
0.000000e+00 0.000000e+00 0
0.000000e+00 0.000000e+00 0
0.000000e+00 0.000000e+00 0
0.000000e+00 0.000000e+00 0
0.000000e+00 0.000000e+00 0
0.000000e+00 0.000000e+00 0
0.000000e+00 0.000000e+00 0
0.000000e+00 0.000000e+00 0
0.000000e+00 0.000000e+00 0
0.000000e+00 0.000000e+00 0
2.737454e+00 -4.026881e-10 0
2.737454e+00 -7.600117e-10 0
2.737454e+00 -2.092784e-09 0
2.737454e+00 -2.816444e-09 0
2.737454e+00 -1.055431e-09 0
2.737454e+00 2.557380e-09 0
2.737454e+00 6.226220e-09 0
2.737454e+00 8.507370e-09 0
2.737454e+00 9.325887e-09 0
2.737454e+00 8.758506e-09 0
2.737454e+00 7.088016e-09 0
2.737454e+00 5.903235e-09 0
2.737454e+00 7.117294e-09 0
2.737454e+00 1.101271e-08 0
2.737454e+00 1.539456e-08 0
2.737454e+00 1.687944e-08 0
2.737454e+00 1.374840e-08 0
2.737454e+00 7.705287e-09 0
2.737454e+00 3.072747e-09 0
2.737454e+00 3.857346e-09 0
2.737454e+00 1.021787e-08 0
2.737454e+00 1.752571e-08 0
2.737454e+00 1.953420e-08 0
2.737454e+00 1.344002e-08 0
2.737454e+00 2.578190e-09 0
2.737454e+00 -5.532043e-09 0
2.737454e+00 -4.605540e-09 0
2.737454e+00 5.147395e-09 0
2.737454e+00 1.664044e-08 0
2.737454e+00 2.131381e-08 0
2.737454e+00 1.561037e-08 0
2.737454e+00 3.406082e-09 0
2.737454e+00 -6.601860e-09 0
2.737454e+00 -7.180310e-09 0
2.737454e+00 1.560003e-09 0
2.737454e+00 1.264533e-08 0
2.737454e+00 1.830263e-08 0
2.737454e+00 1.550429e-08 0
2.737454e+00 7.073323e-09 0
2.737454e+00 -8.071343e-10 0
2.737454e+00 -2.690301e-09 0
2.737454e+00 1.876453e-09 0
2.737454e+00 8.754723e-09 0
2.737454e+00 1.327741e-08 0
2.737454e+00 1.318938e-08 0
2.737454e+00 9.203793e-09 0
2.737454e+00 4.311305e-09 0
2.737454e+00 1.975148e-09 0
2.737454e+00 3.477047e-09 0
2.737454e+00 7.438929e-09 0
2.737454e+00 1.107625e-08 0
2.737454e+00 1.203402e-08 0
2.737454e+00 1.001064e-08 0
2.737454e+00 6.849638e-09 0
2.737454e+00 5.032484e-09 0
2.737454e+00 5.754283e-09 0
2.737454e+00 8.140510e-09 0
2.737454e+00 1.019336e-08 0
2.737454e+00 1.055134e-08 0
2.737454e+00 9.479896e-09 0
2.737454e+00 8.310158e-09 0
2.737454e+00 8.027015e-09 0
2.737454e+00 8.435433e-09 0
2.737454e+00 8.634022e-09 0
2.737454e+00 8.159287e-09 0
2.737454e+00 7.531077e-09 0
2.737454e+00 7.636941e-09 0
2.737454e+00 8.656986e-09 0
2.737454e+00 9.719966e-09 0
2.737454e+00 9.703974e-09 0
2.737454e+00 8.383388e-09 0
2.737454e+00 6.746721e-09 0
2.737454e+00 6.145085e-09 0
2.737454e+00 7.090644e-09 0
2.737454e+00 8.830076e-09 0
2.737454e+00 1.002545e-08 0
2.737454e+00 9.842250e-09 0
2.737454e+00 8.491250e-09 0
2.737454e+00 6.916769e-09 0
2.737454e+00 6.070623e-09 0
2.737454e+00 6.357133e-09 0
2.737454e+00 7.484266e-09 0
2.737454e+00 8.652644e-09 0
2.737454e+00 8.989775e-09 0
2.737454e+00 8.124588e-09 0
2.737454e+00 6.569373e-09 0
2.737454e+00 5.462767e-09 0
2.737454e+00 5.672525e-09 0
2.737454e+00 6.979898e-09 0
2.737454e+00 8.198353e-09 0
2.737454e+00 8.243140e-09 0
2.737454e+00 7.141186e-09 0
2.737454e+00 5.957644e-09 0
2.737454e+00 5.724584e-09 0
2.737454e+00 6.480358e-09 0
2.737454e+00 7.361065e-09 0
2.737454e+00 7.541466e-09 0
2.737454e+00 6.983401e-09 0
2.737454e+00 6.295128e-09 0
2.737454e+00 6.025665e-09 0
2.737454e+00 6.201741e-09 0
2.737454e+00 6.468518e-09 0
2.737454e+00 6.516706e-09 0
2.737454e+00 6.311771e-09 0
2.737454e+00 6.000894e-09 0
2.737454e+00 5.726668e-09 0
2.737454e+00 5.555587e-09 0
2.737454e+00 5.499643e-09 0
2.737454e+00 5.526560e-09 0
2.737454e+00 5.560416e-09 0
2.737454e+00 5.530433e-09 0
2.737454e+00 5.439110e-09 0
2.737454e+00 5.360349e-09 0
2.737454e+00 5.361063e-09 0
2.737454e+00 5.442078e-09 0
2.737454e+00 5.562055e-09 0
2.737454e+00 5.696112e-09 0
2.737454e+00 5.849212e-09 0
2.737454e+00 6.022376e-09 0
2.737454e+00 6.193785e-09 0
2.737454e+00 6.340610e-09 0
2.737454e+00 6.463051e-09 0
2.737454e+00 6.577170e-09 0
2.737454e+00 6.691713e-09 0
2.737454e+00 6.798005e-09 0
2.737454e+00 6.875850e-09 0
2.737454e+00 6.904830e-09 0
2.737454e+00 6.877240e-09 0
2.737454e+00 6.805568e-09 0
2.737454e+00 6.713370e-09 0
2.737454e+00 6.614382e-09 0
2.737454e+00 6.503085e-09 0
2.737454e+00 6.369239e-09 0
2.737454e+00 6.216909e-09 0
2.737454e+00 6.062506e-09 0
2.737454e+00 5.918376e-09 0
2.737454e+00 5.787031e-09 0
2.737454e+00 5.669550e-09 0
2.737454e+00 5.571620e-09 0
2.737454e+00 5.499664e-09 0
2.737454e+00 5.453761e-09 0
2.737454e+00 5.427947e-09 0
2.737454e+00 5.417472e-09 0
2.737454e+00 5.423025e-09 0
2.737454e+00 5.447840e-09 0
2.737454e+00 5.491818e-09 0
2.737454e+00 5.549730e-09 0
2.737454e+00 5.613657e-09 0
2.737454e+00 5.676852e-09 0
2.737454e+00 5.735538e-09 0
2.737454e+00 5.787373e-09 0
2.737454e+00 5.828777e-09 0
2.737454e+00 5.852942e-09 0
2.737454e+00 5.846947e-09 0
2.737454e+00 5.785152e-09 0
2.737454e+00 5.603254e-09 0
2.737454e+00 5.101037e-09 0
2.737454e+00 3.269456e-09 0
2.737454e+00 1.807296e-09 0
5.257997e+00 -1.923040e-09 0
5.257997e+00 -2.157115e-09 0
5.257997e+00 -2.909083e-09 0
5.257997e+00 -2.988625e-09 0
5.257997e+00 -1.034335e-09 0
5.257997e+00 2.172355e-09 0
5.257997e+00 4.883901e-09 0
5.257997e+00 5.997753e-09 0
5.257997e+00 5.530571e-09 0
5.257997e+00 4.369312e-09 0
5.257997e+00 4.096744e-09 0
5.257997e+00 6.228902e-09 0
5.257997e+00 1.092750e-08 0
5.257997e+00 1.645004e-08 0
5.257997e+00 1.978799e-08 0
5.257997e+00 1.864470e-08 0
5.257997e+00 1.341939e-08 0
5.257997e+00 7.519134e-09 0
5.257997e+00 5.359937e-09 0
5.257997e+00 8.993755e-09 0
5.257997e+00 1.595950e-08 0
5.257997e+00 2.056872e-08 0
5.257997e+00 1.805429e-08 0
5.257997e+00 8.540639e-09 0
5.257997e+00 -2.340649e-09 0
5.257997e+00 -7.231260e-09 0
5.257997e+00 -2.586166e-09 0
5.257997e+00 8.236723e-09 0
5.257997e+00 1.696968e-08 0
5.257997e+00 1.691070e-08 0
5.257997e+00 7.890646e-09 0
5.257997e+00 -3.948274e-09 0
5.257997e+00 -1.017412e-08 0
5.257997e+00 -6.575768e-09 0
5.257997e+00 3.595421e-09 0
5.257997e+00 1.260797e-08 0
5.257997e+00 1.457891e-08 0
5.257997e+00 9.257218e-09 0
5.257997e+00 1.041460e-09 0
5.257997e+00 -4.005534e-09 0
5.257997e+00 -2.671615e-09 0
5.257997e+00 3.291085e-09 0
5.257997e+00 9.376938e-09 0
5.257997e+00 1.194614e-08 0
5.257997e+00 1.021011e-08 0
5.257997e+00 6.038976e-09 0
5.257997e+00 2.585908e-09 0
5.257997e+00 2.211472e-09 0
5.257997e+00 4.999856e-09 0
5.257997e+00 8.925663e-09 0
5.257997e+00 1.142541e-08 0
5.257997e+00 1.115089e-08 0
5.257997e+00 8.807223e-09 0
5.257997e+00 6.481616e-09 0
5.257997e+00 5.997698e-09 0
5.257997e+00 7.562555e-09 0
5.257997e+00 9.798270e-09 0
5.257997e+00 1.105037e-08 0
5.257997e+00 1.076091e-08 0
5.257997e+00 9.714732e-09 0
5.257997e+00 9.076665e-09 0
5.257997e+00 9.255434e-09 0
5.257997e+00 9.687663e-09 0
5.257997e+00 9.633760e-09 0
5.257997e+00 9.061308e-09 0
5.257997e+00 8.673443e-09 0
5.257997e+00 9.087357e-09 0
5.257997e+00 1.007154e-08 0
5.257997e+00 1.068012e-08 0
5.257997e+00 1.017454e-08 0
5.257997e+00 8.798403e-09 0
5.257997e+00 7.618892e-09 0
5.257997e+00 7.585250e-09 0
5.257997e+00 8.704209e-09 0
5.257997e+00 1.007253e-08 0
5.257997e+00 1.065901e-08 0
5.257997e+00 1.008405e-08 0
5.257997e+00 8.789323e-09 0
5.257997e+00 7.619301e-09 0
5.257997e+00 7.251272e-09 0
5.257997e+00 7.835977e-09 0
5.257997e+00 8.939629e-09 0
5.257997e+00 9.766158e-09 0
5.257997e+00 9.637967e-09 0
5.257997e+00 8.535976e-09 0
5.257997e+00 7.244042e-09 0
5.257997e+00 6.793873e-09 0
5.257997e+00 7.558370e-09 0
5.257997e+00 8.843685e-09 0
5.257997e+00 9.483527e-09 0
5.257997e+00 8.932834e-09 0
5.257997e+00 7.769390e-09 0
5.257997e+00 7.084331e-09 0
5.257997e+00 7.402581e-09 0
5.257997e+00 8.244608e-09 0
5.257997e+00 8.714738e-09 0
5.257997e+00 8.405207e-09 0
5.257997e+00 7.671782e-09 0
5.257997e+00 7.132036e-09 0
5.257997e+00 7.042158e-09 0
5.257997e+00 7.180254e-09 0
5.257997e+00 7.203342e-09 0
5.257997e+00 6.985095e-09 0
5.257997e+00 6.619246e-09 0
5.257997e+00 6.232354e-09 0
5.257997e+00 5.892325e-09 0
5.257997e+00 5.647351e-09 0
5.257997e+00 5.536009e-09 0
5.257997e+00 5.526633e-09 0
5.257997e+00 5.512420e-09 0
5.257997e+00 5.419656e-09 0
5.257997e+00 5.298631e-09 0
5.257997e+00 5.267309e-09 0
5.257997e+00 5.377088e-09 0
5.257997e+00 5.572391e-09 0
5.257997e+00 5.779914e-09 0
5.257997e+00 5.993607e-09 0
5.257997e+00 6.249978e-09 0
5.257997e+00 6.551228e-09 0
5.257997e+00 6.849997e-09 0
5.257997e+00 7.103771e-09 0
5.257997e+00 7.314981e-09 0
5.257997e+00 7.511395e-09 0
5.257997e+00 7.705686e-09 0
5.257997e+00 7.882057e-09 0
5.257997e+00 8.009724e-09 0
5.257997e+00 8.062616e-09 0
5.257997e+00 8.035587e-09 0
5.257997e+00 7.949599e-09 0
5.257997e+00 7.836453e-09 0
5.257997e+00 7.711641e-09 0
5.257997e+00 7.565453e-09 0
5.257997e+00 7.384923e-09 0
5.257997e+00 7.176995e-09 0
5.257997e+00 6.963367e-09 0
5.257997e+00 6.759702e-09 0
5.257997e+00 6.568981e-09 0
5.257997e+00 6.392673e-09 0
5.257997e+00 6.239302e-09 0
5.257997e+00 6.117530e-09 0
5.257997e+00 6.025883e-09 0
5.257997e+00 5.955902e-09 0
5.257997e+00 5.903595e-09 0
5.257997e+00 5.873149e-09 0
5.257997e+00 5.870020e-09 0
5.257997e+00 5.893279e-09 0
5.257997e+00 5.934391e-09 0
5.257997e+00 5.982235e-09 0
5.257997e+00 6.028965e-09 0
5.257997e+00 6.070814e-09 0
5.257997e+00 6.104893e-09 0
5.257997e+00 6.124757e-09 0
5.257997e+00 6.117542e-09 0
5.257997e+00 6.060602e-09 0
5.257997e+00 5.913660e-09 0
5.257997e+00 5.597705e-09 0
5.257997e+00 4.954074e-09 0
5.257997e+00 3.789262e-09 0
5.257997e+00 3.054533e-09 0
7.566887e+00 -2.618738e-09 0
7.566887e+00 -3.345270e-09 0
7.566887e+00 -4.624833e-09 0
7.566887e+00 -4.525861e-09 0
7.566887e+00 -2.234910e-09 0
7.566887e+00 9.840737e-10 0
7.566887e+00 3.142546e-09 0
7.566887e+00 3.144460e-09 0
7.566887e+00 1.349763e-09 0
7.566887e+00 -5.095130e-10 0
7.566887e+00 -1.323278e-11 0
7.566887e+00 4.332467e-09 0
7.566887e+00 1.170679e-08 0
7.566887e+00 1.890144e-08 0
7.566887e+00 2.208065e-08 0
7.566887e+00 1.944721e-08 0
7.566887e+00 1.294981e-08 0
7.566887e+00 7.481487e-09 0
7.566887e+00 7.477731e-09 0
7.566887e+00 1.329164e-08 0
7.566887e+00 2.041730e-08 0
7.566887e+00 2.241523e-08 0
7.566887e+00 1.591664e-08 0
7.566887e+00 3.760952e-09 0
7.566887e+00 -6.611075e-09 0
7.566887e+00 -8.345949e-09 0
7.566887e+00 -5.640597e-10 0
7.566888e+00 1.027807e-08 0
7.566888e+00 1.556263e-08 0
7.566887e+00 1.097230e-08 0
7.566887e+00 -7.178497e-10 0
7.566887e+00 -1.126599e-08 0
7.566887e+00 -1.321809e-08 0
7.566887e+00 -5.728645e-09 0
7.566888e+00 4.969496e-09 0
7.566888e+00 1.124245e-08 0
7.566888e+00 9.622122e-09 0
7.566887e+00 2.290517e-09 0
7.566887e+00 -4.879498e-09 0
7.566887e+00 -6.709960e-09 0
7.566888e+00 -2.394590e-09 0
7.566888e+00 4.393239e-09 0
7.566888e+00 9.125397e-09 0
7.566888e+00 9.611993e-09 0
7.566888e+00 6.549954e-09 0
7.566888e+00 2.566278e-09 0
7.566888e+00 6.292437e-10 0
7.566888e+00 2.051305e-09 0
7.566888e+00 5.731282e-09 0
7.566888e+00 9.228668e-09 0
7.566888e+00 1.052349e-08 0
7.566888e+00 9.259390e-09 0
7.566888e+00 6.841754e-09 0
7.566888e+00 5.342186e-09 0
7.566888e+00 5.907432e-09 0
7.566888e+00 7.979106e-09 0
7.566888e+00 9.943530e-09 0
7.566888e+00 1.056214e-08 0
7.566888e+00 9.899182e-09 0
7.566888e+00 9.001499e-09 0
7.566888e+00 8.774745e-09 0
7.566888e+00 9.195708e-09 0
7.566888e+00 9.558631e-09 0
7.566888e+00 9.373314e-09 0
7.566888e+00 8.918909e-09 0
7.566888e+00 8.891930e-09 0
7.566888e+00 9.570667e-09 0
7.566888e+00 1.041904e-08 0
7.566888e+00 1.057223e-08 0
7.566888e+00 9.712762e-09 0
7.566888e+00 8.442176e-09 0
7.566888e+00 7.772574e-09 0
7.566888e+00 8.234552e-09 0
7.566888e+00 9.440946e-09 0
7.566888e+00 1.045709e-08 0
7.566888e+00 1.056417e-08 0
7.566888e+00 9.740100e-09 0
7.566888e+00 8.566400e-09 0
7.566888e+00 7.778379e-09 0
7.566888e+00 7.828828e-09 0
7.566888e+00 8.654537e-09 0
7.566888e+00 9.682100e-09 0
7.566888e+00 1.012620e-08 0
7.566888e+00 9.541789e-09 0
7.566888e+00 8.271273e-09 0
7.566888e+00 7.292795e-09 0
7.566888e+00 7.420250e-09 0
7.566888e+00 8.517419e-09 0
7.566888e+00 9.550492e-09 0
7.566888e+00 9.541852e-09 0
7.566888e+00 8.510645e-09 0
7.566888e+00 7.427108e-09 0
7.566888e+00 7.224072e-09 0
7.566888e+00 7.901472e-09 0
7.566888e+00 8.629851e-09 0
7.566888e+00 8.652541e-09 0
7.566888e+00 7.981571e-09 0
7.566888e+00 7.229595e-09 0
7.566888e+00 6.902769e-09 0
7.566888e+00 6.967864e-09 0
7.566888e+00 7.052745e-09 0
7.566888e+00 6.903268e-09 0
7.566888e+00 6.556300e-09 0
7.566888e+00 6.161114e-09 0
7.566888e+00 5.792902e-09 0
7.566888e+00 5.473307e-09 0
7.566888e+00 5.256953e-09 0
7.566888e+00 5.191643e-09 0
7.566888e+00 5.217412e-09 0
7.566888e+00 5.199698e-09 0
7.566888e+00 5.091166e-09 0
7.566888e+00 5.002289e-09 0
7.566888e+00 5.071813e-09 0
7.566888e+00 5.305709e-09 0
7.566888e+00 5.592228e-09 0
7.566888e+00 5.853858e-09 0
7.566888e+00 6.124536e-09 0
7.566888e+00 6.468654e-09 0
7.566888e+00 6.875900e-09 0
7.566888e+00 7.270507e-09 0
7.566888e+00 7.599910e-09 0
7.566888e+00 7.877842e-09 0
7.566888e+00 8.144096e-09 0
7.566888e+00 8.410526e-09 0
7.566888e+00 8.652234e-09 0
7.566888e+00 8.832018e-09 0
7.566888e+00 8.924360e-09 0
7.566888e+00 8.927958e-09 0
7.566888e+00 8.866517e-09 0
7.566888e+00 8.772160e-09 0
7.566888e+00 8.659182e-09 0
7.566888e+00 8.517393e-09 0
7.566888e+00 8.334532e-09 0
7.566888e+00 8.118119e-09 0
7.566888e+00 7.890166e-09 0
7.566888e+00 7.666525e-09 0
7.566888e+00 7.449878e-09 0
7.566888e+00 7.242361e-09 0
7.566888e+00 7.054215e-09 0
7.566888e+00 6.894394e-09 0
7.566888e+00 6.760450e-09 0
7.566888e+00 6.643677e-09 0
7.566888e+00 6.540950e-09 0
7.566888e+00 6.458063e-09 0
7.566888e+00 6.401589e-09 0
7.566888e+00 6.369842e-09 0
7.566888e+00 6.352439e-09 0
7.566888e+00 6.337862e-09 0
7.566888e+00 6.319280e-09 0
7.566888e+00 6.294576e-09 0
7.566888e+00 6.260890e-09 0
7.566888e+00 6.210606e-09 0
7.566888e+00 6.129125e-09 0
7.566888e+00 5.994315e-09 0
7.566888e+00 5.773424e-09 0
7.566888e+00 5.421186e-09 0
7.566888e+00 4.897515e-09 0
7.566888e+00 4.209791e-09 0
7.566888e+00 3.830588e-09 0
9.669262e+00 -2.820006e-09 0
9.669262e+00 -4.243876e-09 0
9.669262e+00 -6.382049e-09 0
9.669262e+00 -6.417313e-09 0
9.669262e+00 -3.959331e-09 0
9.669262e+00 -5.948686e-10 0
9.669262e+00 1.215167e-09 0
9.669262e+00 1.918919e-10 0
9.669262e+00 -2.730068e-09 0
9.669262e+00 -4.813813e-09 0
9.669262e+00 -3.037822e-09 0
9.669262e+00 3.676490e-09 0
9.669262e+00 1.307880e-08 0
9.669262e+00 2.061714e-08 0
9.669262e+00 2.234775e-08 0
9.669262e+00 1.783468e-08 0
9.669262e+00 1.097111e-08 0
9.669262e+00 7.501203e-09 0
9.669262e+00 1.071732e-08 0
9.669262e+00 1.854785e-08 0
9.669262e+00 2.452159e-08 0
9.669262e+00 2.245832e-08 0
9.669262e+00 1.157853e-08 0
9.669262e+00 -2.304379e-09 0
9.669262e+00 -1.057199e-08 0
9.669262e+00 -8.118614e-09 0
9.669262e+00 2.201826e-09 0
9.669262e+00 1.161942e-08 0
9.669262e+00 1.228429e-08 0
9.669262e+00 2.954831e-09 0
9.669262e+00 -1.005493e-08 0
9.669262e+00 -1.744355e-08 0
9.669262e+00 -1.419138e-08 0
9.669262e+00 -3.404020e-09 0
9.669262e+00 6.665434e-09 0
9.669262e+00 9.350346e-09 0
9.669262e+00 4.022033e-09 0
9.669262e+00 -4.491947e-09 0
9.669262e+00 -9.583425e-09 0
9.669262e+00 -7.774676e-09 0
9.669262e+00 -1.011641e-09 0
9.669262e+00 5.747067e-09 0
9.669262e+00 8.702255e-09 0
9.669262e+00 7.258329e-09 0
9.669262e+00 3.359878e-09 0
9.669262e+00 1.805127e-10 0
9.669262e+00 1.261829e-10 0
9.669262e+00 3.200237e-09 0
9.669262e+00 7.385169e-09 0
9.669262e+00 1.024042e-08 0
9.669262e+00 1.038124e-08 0
9.669262e+00 8.304690e-09 0
9.669262e+00 5.953999e-09 0
9.669262e+00 5.224131e-09 0
9.669262e+00 6.559917e-09 0
9.669262e+00 8.788667e-09 0
9.669262e+00 1.025258e-08 0
9.669262e+00 1.019588e-08 0
9.669262e+00 9.205147e-09 0
9.669262e+00 8.434701e-09 0
9.669262e+00 8.476147e-09 0
9.669262e+00 8.965694e-09 0
9.669262e+00 9.191221e-09 0
9.669262e+00 8.951419e-09 0
9.669262e+00 8.744024e-09 0
9.669262e+00 9.135413e-09 0
9.669262e+00 1.004095e-08 0
9.669262e+00 1.071601e-08 0
9.669262e+00 1.048349e-08 0
9.669262e+00 9.445597e-09 0
9.669262e+00 8.450581e-09 0
9.669262e+00 8.345125e-09 0