<?xml version="1.0"?>
<VTKFile type="StructuredGrid">
<StructuredGrid WholeExtent="0 158 0 30 0 0 ">
<Piece Extent="0 158 0 30 0 0 ">
<Points>
<DataArray type="Float64" format="ascii" NumberOfComponents="3">
0.000000e+00 0.000000e+00 0.000000e+00
3.164557e-02 0.000000e+00 0.000000e+00
6.329114e-02 0.000000e+00 0.000000e+00
9.493671e-02 0.000000e+00 0.000000e+00
1.265823e-01 0.000000e+00 0.000000e+00
1.582278e-01 0.000000e+00 0.000000e+00
1.898734e-01 0.000000e+00 0.000000e+00
2.215190e-01 0.000000e+00 0.000000e+00
2.531646e-01 0.000000e+00 0.000000e+00
2.848101e-01 0.000000e+00 0.000000e+00
3.164557e-01 0.000000e+00 0.000000e+00
3.481013e-01 0.000000e+00 0.000000e+00
3.797468e-01 0.000000e+00 0.000000e+00
4.113924e-01 0.000000e+00 0.000000e+00
4.430380e-01 0.000000e+00 0.000000e+00
4.746835e-01 0.000000e+00 0.000000e+00
5.063291e-01 0.000000e+00 0.000000e+00
5.379747e-01 0.000000e+00 0.000000e+00
5.696203e-01 0.000000e+00 0.000000e+00
6.012658e-01 0.000000e+00 0.000000e+00
6.329114e-01 0.000000e+00 0.000000e+00
6.645570e-01 0.000000e+00 0.000000e+00
6.962025e-01 0.000000e+00 0.000000e+00
7.278481e-01 0.000000e+00 0.000000e+00
7.594937e-01 0.000000e+00 0.000000e+00
7.911392e-01 0.000000e+00 0.000000e+00
8.227848e-01 0.000000e+00 0.000000e+00
8.544304e-01 0.000000e+00 0.000000e+00
8.860759e-01 0.000000e+00 0.000000e+00
9.177215e-01 0.000000e+00 0.000000e+00
9.493671e-01 0.000000e+00 0.000000e+00
9.810127e-01 0.000000e+00 0.000000e+00
1.012658e+00 0.000000e+00 0.000000e+00
1.044304e+00 0.000000e+00 0.000000e+00
1.075949e+00 0.000000e+00 0.000000e+00
1.107595e+00 0.000000e+00 0.000000e+00
1.139241e+00 0.000000e+00 0.000000e+00
1.170886e+00 0.000000e+00 0.000000e+00
1.202532e+00 0.000000e+00 0.000000e+00
1.234177e+00 0.000000e+00 0.000000e+00
1.265823e+00 0.000000e+00 0.000000e+00
1.297468e+00 0.000000e+00 0.000000e+00
1.329114e+00 0.000000e+00 0.000000e+00
1.360759e+00 0.000000e+00 0.000000e+00
1.392405e+00 0.000000e+00 0.000000e+00
1.424051e+00 0.000000e+00 0.000000e+00
1.455696e+00 0.000000e+00 0.000000e+00
1.487342e+00 0.000000e+00 0.000000e+00
1.518987e+00 0.000000e+00 0.000000e+00
1.550633e+00 0.000000e+00 0.000000e+00
1.582278e+00 0.000000e+00 0.000000e+00
1.613924e+00 0.000000e+00 0.000000e+00
1.645570e+00 0.000000e+00 0.000000e+00
1.677215e+00 0.000000e+00 0.000000e+00
1.708861e+00 0.000000e+00 0.000000e+00
1.740506e+00 0.000000e+00 0.000000e+00
1.772152e+00 0.000000e+00 0.000000e+00
1.803797e+00 0.000000e+00 0.000000e+00
1.835443e+00 0.000000e+00 0.000000e+00
1.867089e+00 0.000000e+00 0.000000e+00
1.898734e+00 0.000000e+00 0.000000e+00
1.930380e+00 0.000000e+00 0.000000e+00
1.962025e+00 0.000000e+00 0.000000e+00
1.993671e+00 0.000000e+00 0.000000e+00
2.025316e+00 0.000000e+00 0.000000e+00
2.056962e+00 0.000000e+00 0.000000e+00
2.088608e+00 0.000000e+00 0.000000e+00
2.120253e+00 0.000000e+00 0.000000e+00
2.151899e+00 0.000000e+00 0.000000e+00
2.183544e+00 0.000000e+00 0.000000e+00
2.215190e+00 0.000000e+00 0.000000e+00
2.246835e+00 0.000000e+00 0.000000e+00
2.278481e+00 0.000000e+00 0.000000e+00
2.310127e+00 0.000000e+00 0.000000e+00
2.341772e+00 0.000000e+00 0.000000e+00
2.373418e+00 0.000000e+00 0.000000e+00
2.405063e+00 0.000000e+00 0.000000e+00
2.436709e+00 0.000000e+00 0.000000e+00
2.468354e+00 0.000000e+00 0.000000e+00
2.500000e+00 0.000000e+00 0.000000e+00
2.531646e+00 0.000000e+00 0.000000e+00
2.563291e+00 0.000000e+00 0.000000e+00
2.594937e+00 0.000000e+00 0.000000e+00
2.626582e+00 0.000000e+00 0.000000e+00
2.658228e+00 0.000000e+00 0.000000e+00
2.689873e+00 0.000000e+00 0.000000e+00
2.721519e+00 0.000000e+00 0.000000e+00
2.753165e+00 0.000000e+00 0.000000e+00
2.784810e+00 0.000000e+00 0.000000e+00
2.816456e+00 0.000000e+00 0.000000e+00
2.848101e+00 0.000000e+00 0.000000e+00
2.879747e+00 0.000000e+00 0.000000e+00
2.911392e+00 0.000000e+00 0.000000e+00
2.943038e+00 0.000000e+00 0.000000e+00
2.974684e+00 0.000000e+00 0.000000e+00
3.006329e+00 0.000000e+00 0.000000e+00
3.037975e+00 0.000000e+00 0.000000e+00
3.069620e+00 0.000000e+00 0.000000e+00
3.101266e+00 0.000000e+00 0.000000e+00
3.132911e+00 0.000000e+00 0.000000e+00
3.164557e+00 0.000000e+00 0.000000e+00
3.196203e+00 0.000000e+00 0.000000e+00
3.227848e+00 0.000000e+00 0.000000e+00
3.259494e+00 0.000000e+00 0.000000e+00
3.291139e+00 0.000000e+00 0.000000e+00
3.322785e+00 0.000000e+00 0.000000e+00
3.354430e+00 0.000000e+00 0.000000e+00
3.386076e+00 0.000000e+00 0.000000e+00
3.417722e+00 0.000000e+00 0.000000e+00
3.449367e+00 0.000000e+00 0.000000e+00
3.481013e+00 0.000000e+00 0.000000e+00
3.512658e+00 0.000000e+00 0.000000e+00
3.544304e+00 0.000000e+00 0.000000e+00
3.575949e+00 0.000000e+00 0.000000e+00
3.607595e+00 0.000000e+00 0.000000e+00
3.639241e+00 0.000000e+00 0.000000e+00
3.670886e+00 0.000000e+00 0.000000e+00
3.702532e+00 0.000000e+00 0.000000e+00
3.734177e+00 0.000000e+00 0.000000e+00
3.765823e+00 0.000000e+00 0.000000e+00
3.797468e+00 0.000000e+00 0.000000e+00
3.829114e+00 0.000000e+00 0.000000e+00
3.860759e+00 0.000000e+00 0.000000e+00
3.892405e+00 0.000000e+00 0.000000e+00
3.924051e+00 0.000000e+00 0.000000e+00
3.955696e+00 0.000000e+00 0.000000e+00
3.987342e+00 0.000000e+00 0.000000e+00
4.018987e+00 0.000000e+00 0.000000e+00
4.050633e+00 0.000000e+00 0.000000e+00
4.082278e+00 0.000000e+00 0.000000e+00
4.113924e+00 0.000000e+00 0.000000e+00
4.145570e+00 0.000000e+00 0.000000e+00
4.177215e+00 0.000000e+00 0.000000e+00
4.208861e+00 0.000000e+00 0.000000e+00
4.240506e+00 0.000000e+00 0.000000e+00
4.272152e+00 0.000000e+00 0.000000e+00
4.303797e+00 0.000000e+00 0.000000e+00
4.335443e+00 0.000000e+00 0.000000e+00
4.367089e+00 0.000000e+00 0.000000e+00
4.398734e+00 0.000000e+00 0.000000e+00
4.430380e+00 0.000000e+00 0.000000e+00
4.462025e+00 0.000000e+00 0.000000e+00
4.493671e+00 0.000000e+00 0.000000e+00
4.525316e+00 0.000000e+00 0.000000e+00
4.556962e+00 0.000000e+00 0.000000e+00
4.588608e+00 0.000000e+00 0.000000e+00
4.620253e+00 0.000000e+00 0.000000e+00
4.651899e+00 0.000000e+00 0.000000e+00
4.683544e+00 0.000000e+00 0.000000e+00
4.715190e+00 0.000000e+00 0.000000e+00
4.746835e+00 0.000000e+00 0.000000e+00
4.778481e+00 0.000000e+00 0.000000e+00
4.810127e+00 0.000000e+00 0.000000e+00
4.841772e+00 0.000000e+00 0.000000e+00
4.873418e+00 0.000000e+00 0.000000e+00
4.905063e+00 0.000000e+00 0.000000e+00
4.936709e+00 0.000000e+00 0.000000e+00
4.968354e+00 0.000000e+00 0.000000e+00
5.000000e+00 0.000000e+00 0.000000e+00
0.000000e+00 3.333333e-02 0.000000e+00
3.164557e-02 3.333333e-02 0.000000e+00
6.329114e-02 3.333333e-02 0.000000e+00
9.493671e-02 3.333333e-02 0.000000e+00
1.265823e-01 3.333333e-02 0.000000e+00
1.582278e-01 3.333333e-02 0.000000e+00
1.898734e-01 3.333333e-02 0.000000e+00
2.215190e-01 3.333333e-02 0.000000e+00
2.531646e-01 3.333333e-02 0.000000e+00
2.848101e-01 3.333333e-02 0.000000e+00
3.164557e-01 3.333333e-02 0.000000e+00
3.481013e-01 3.333333e-02 0.000000e+00
3.797468e-01 3.333333e-02 0.000000e+00
4.113924e-01 3.333333e-02 0.000000e+00
4.430380e-01 3.333333e-02 0.000000e+00
4.746835e-01 3.333333e-02 0.000000e+00
5.063291e-01 3.333333e-02 0.000000e+00
5.379747e-01 3.333333e-02 0.000000e+00
5.696203e-01 3.333333e-02 0.000000e+00
6.012658e-01 3.333333e-02 0.000000e+00
6.329114e-01 3.333333e-02 0.000000e+00
6.645570e-01 3.333333e-02 0.000000e+00
6.962025e-01 3.333333e-02 0.000000e+00
7.278481e-01 3.333333e-02 0.000000e+00
7.594937e-01 3.333333e-02 0.000000e+00
7.911392e-01 3.333333e-02 0.000000e+00
8.227848e-01 3.333333e-02 0.000000e+00
8.544304e-01 3.333333e-02 0.000000e+00
8.860759e-01 3.333333e-02 0.000000e+00
9.177215e-01 3.333333e-02 0.000000e+00
9.493671e-01 3.333333e-02 0.000000e+00
9.810127e-01 3.333333e-02 0.000000e+00
1.012658e+00 3.333333e-02 0.000000e+00
1.044304e+00 3.333333e-02 0.000000e+00
1.075949e+00 3.333333e-02 0.000000e+00
1.107595e+00 3.333333e-02 0.000000e+00
1.139241e+00 3.333333e-02 0.000000e+00
1.170886e+00 3.333333e-02 0.000000e+00
1.202532e+00 3.333333e-02 0.000000e+00
1.234177e+00 3.333333e-02 0.000000e+00
1.265823e+00 3.333333e-02 0.000000e+00
1.297468e+00 3.333333e-02 0.000000e+00
1.329114e+00 3.333333e-02 0.000000e+00
1.360759e+00 3.333333e-02 0.000000e+00
1.392405e+00 3.333333e-02 0.000000e+00
1.424051e+00 3.333333e-02 0.000000e+00
1.455696e+00 3.333333e-02 0.000000e+00
1.487342e+00 3.333333e-02 0.000000e+00
1.518987e+00 3.333333e-02 0.000000e+00
1.550633e+00 3.333333e-02 0.000000e+00
1.582278e+00 3.333333e-02 0.000000e+00
1.613924e+00 3.333333e-02 0.000000e+00
1.645570e+00 3.333333e-02 0.000000e+00
1.677215e+00 3.333333e-02 0.000000e+00
1.708861e+00 3.333333e-02 0.000000e+00
1.740506e+00 3.333333e-02 0.000000e+00
1.772152e+00 3.333333e-02 0.000000e+00
1.803797e+00 3.333333e-02 0.000000e+00
1.835443e+00 3.333333e-02 0.000000e+00
1.867089e+00 3.333333e-02 0.000000e+00
1.898734e+00 3.333333e-02 0.000000e+00
1.930380e+00 3.333333e-02 0.000000e+00
1.962025e+00 3.333333e-02 0.000000e+00
1.993671e+00 3.333333e-02 0.000000e+00
2.025316e+00 3.333333e-02 0.000000e+00
2.056962e+00 3.333333e-02 0.000000e+00
2.088608e+00 3.333333e-02 0.000000e+00
2.120253e+00 3.333333e-02 0.000000e+00
2.151899e+00 3.333333e-02 0.000000e+00
2.183544e+00 3.333333e-02 0.000000e+00
2.215190e+00 3.333333e-02 0.000000e+00
2.246835e+00 3.333333e-02 0.000000e+00
2.278481e+00 3.333333e-02 0.000000e+00
2.310127e+00 3.333333e-02 0.000000e+00
2.341772e+00 3.333333e-02 0.000000e+00
2.373418e+00 3.333333e-02 0.000000e+00
2.405063e+00 3.333333e-02 0.000000e+00
2.436709e+00 3.333333e-02 0.000000e+00
2.468354e+00 3.333333e-02 0.000000e+00
2.500000e+00 3.333333e-02 0.000000e+00
2.531646e+00 3.333333e-02 0.000000e+00
2.563291e+00 3.333333e-02 0.000000e+00
2.594937e+00 3.333333e-02 0.000000e+00
2.626582e+00 3.333333e-02 0.000000e+00
2.658228e+00 3.333333e-02 0.000000e+00
2.689873e+00 3.333333e-02 0.000000e+00
2.721519e+00 3.333333e-02 0.000000e+00
2.753165e+00 3.333333e-02 0.000000e+00
2.784810e+00 3.333333e-02 0.000000e+00
2.816456e+00 3.333333e-02 0.000000e+00
2.848101e+00 3.333333e-02 0.000000e+00
2.879747e+00 3.333333e-02 0.000000e+00
[...]
<PointData>
<DataArray Name="Velocity" type="Float64" format="ascii" NumberOfComponents="3">
0.000000e+00 0.000000e+00 0
0.000000e+00 0.000000e+00 0
0.000000e+00 0.000000e+00 0
0.000000e+00 0.000000e+00 0
0.000000e+00 0.000000e+00 0
0.000000e+00 0.000000e+00 0
0.000000e+00 0.000000e+00 0
0.000000e+00 0.000000e+00 0
0.000000e+00 0.000000e+00 0
0.000000e+00 0.000000e+00 0
0.000000e+00 0.000000e+00 0
0.000000e+00 0.000000e+00 0
0.000000e+00 0.000000e+00 0
0.000000e+00 0.000000e+00 0
0.000000e+00 0.000000e+00 0
0.000000e+00 0.000000e+00 0
0.000000e+00 0.000000e+00 0
0.000000e+00 0.000000e+00 0
0.000000e+00 0.000000e+00 0
-4.896380e-17 0.000000e+00 0
0.000000e+00 0.000000e+00 0
0.000000e+00 0.000000e+00 0
0.000000e+00 0.000000e+00 0
-4.896387e-17 0.000000e+00 0
0.000000e+00 0.000000e+00 0
0.000000e+00 0.000000e+00 0
0.000000e+00 0.000000e+00 0
-4.896392e-17 0.000000e+00 0
0.000000e+00 0.000000e+00 0
0.000000e+00 0.000000e+00 0
0.000000e+00 0.000000e+00 0
-4.896398e-17 0.000000e+00 0
0.000000e+00 0.000000e+00 0
0.000000e+00 0.000000e+00 0
0.000000e+00 0.000000e+00 0
0.000000e+00 0.000000e+00 0
0.000000e+00 0.000000e+00 0
0.000000e+00 0.000000e+00 0
1.309414e-17 0.000000e+00 0
0.000000e+00 0.000000e+00 0
0.000000e+00 0.000000e+00 0
0.000000e+00 0.000000e+00 0
0.000000e+00 0.000000e+00 0
0.000000e+00 0.000000e+00 0
0.000000e+00 0.000000e+00 0
0.000000e+00 0.000000e+00 0
1.309392e-17 0.000000e+00 0
0.000000e+00 0.000000e+00 0
0.000000e+00 0.000000e+00 0
0.000000e+00 0.000000e+00 0
0.000000e+00 0.000000e+00 0
0.000000e+00 0.000000e+00 0
0.000000e+00 0.000000e+00 0
0.000000e+00 0.000000e+00 0
1.309373e-17 0.000000e+00 0
0.000000e+00 0.000000e+00 0
0.000000e+00 0.000000e+00 0
0.000000e+00 0.000000e+00 0
0.000000e+00 0.000000e+00 0
0.000000e+00 0.000000e+00 0
0.000000e+00 0.000000e+00 0
0.000000e+00 0.000000e+00 0
1.309356e-17 0.000000e+00 0
0.000000e+00 0.000000e+00 0
0.000000e+00 0.000000e+00 0
0.000000e+00 0.000000e+00 0
0.000000e+00 0.000000e+00 0
0.000000e+00 0.000000e+00 0
0.000000e+00 0.000000e+00 0
0.000000e+00 0.000000e+00 0
0.000000e+00 0.000000e+00 0
0.000000e+00 0.000000e+00 0
0.000000e+00 0.000000e+00 0
0.000000e+00 0.000000e+00 0
0.000000e+00 0.000000e+00 0
0.000000e+00 0.000000e+00 0
0.000000e+00 0.000000e+00 0
0.000000e+00 0.000000e+00 0
0.000000e+00 0.000000e+00 0
0.000000e+00 0.000000e+00 0
0.000000e+00 0.000000e+00 0
0.000000e+00 0.000000e+00 0
0.000000e+00 0.000000e+00 0
0.000000e+00 0.000000e+00 0
0.000000e+00 0.000000e+00 0
0.000000e+00 0.000000e+00 0
0.000000e+00 0.000000e+00 0
0.000000e+00 0.000000e+00 0
0.000000e+00 0.000000e+00 0
0.000000e+00 0.000000e+00 0
0.000000e+00 0.000000e+00 0
0.000000e+00 0.000000e+00 0
0.000000e+00 0.000000e+00 0
0.000000e+00 0.000000e+00 0
0.000000e+00 0.000000e+00 0
0.000000e+00 0.000000e+00 0
0.000000e+00 0.000000e+00 0
0.000000e+00 0.000000e+00 0
0.000000e+00 0.000000e+00 0
0.000000e+00 0.000000e+00 0
0.000000e+00 0.000000e+00 0
0.000000e+00 0.000000e+00 0
0.000000e+00 0.000000e+00 0
0.000000e+00 0.000000e+00 0
0.000000e+00 0.000000e+00 0
0.000000e+00 0.000000e+00 0
0.000000e+00 0.000000e+00 0
0.000000e+00 0.000000e+00 0
0.000000e+00 0.000000e+00 0
0.000000e+00 0.000000e+00 0
0.000000e+00 0.000000e+00 0
0.000000e+00 0.000000e+00 0
0.000000e+00 0.000000e+00 0
0.000000e+00 0.000000e+00 0
0.000000e+00 0.000000e+00 0
0.000000e+00 0.000000e+00 0
0.000000e+00 0.000000e+00 0
0.000000e+00 0.000000e+00 0
0.000000e+00 0.000000e+00 0
0.000000e+00 0.000000e+00 0
0.000000e+00 0.000000e+00 0
0.000000e+00 0.000000e+00 0
0.000000e+00 0.000000e+00 0
0.000000e+00 0.000000e+00 0
0.000000e+00 0.000000e+00 0
0.000000e+00 0.000000e+00 0
0.000000e+00 0.000000e+00 0
0.000000e+00 0.000000e+00 0
0.000000e+00 0.000000e+00 0
0.000000e+00 0.000000e+00 0
0.000000e+00 0.000000e+00 0
0.000000e+00 0.000000e+00 0
0.000000e+00 0.000000e+00 0
0.000000e+00 0.000000e+00 0
0.000000e+00 0.000000e+00 0
0.000000e+00 0.000000e+00 0
0.000000e+00 0.000000e+00 0
0.000000e+00 0.000000e+00 0
0.000000e+00 0.000000e+00 0
0.000000e+00 0.000000e+00 0
0.000000e+00 0.000000e+00 0
0.000000e+00 0.000000e+00 0
0.000000e+00 0.000000e+00 0
0.000000e+00 0.000000e+00 0
0.000000e+00 0.000000e+00 0
0.000000e+00 0.000000e+00 0
0.000000e+00 0.000000e+00 0
0.000000e+00 0.000000e+00 0
0.000000e+00 0.000000e+00 0
0.000000e+00 0.000000e+00 0
0.000000e+00 0.000000e+00 0
0.000000e+00 0.000000e+00 0
0.000000e+00 0.000000e+00 0
0.000000e+00 0.000000e+00 0
0.000000e+00 0.000000e+00 0
0.000000e+00 0.000000e+00 0
0.000000e+00 0.000000e+00 0
0.000000e+00 0.000000e+00 0
0.000000e+00 0.000000e+00 0
3.084137e+00 1.298243e-08 0
3.084137e+00 2.715854e-08 0
3.084137e+00 4.902785e-08 0
3.084137e+00 5.520292e-08 0
3.084137e+00 4.508644e-08 0
3.084137e+00 2.604567e-08 0
3.084137e+00 8.895535e-09 0
3.084137e+00 2.093491e-09 0
3.084137e+00 6.454033e-09 0
3.084137e+00 1.554969e-08 0
3.084137e+00 2.155814e-08 0
3.084137e+00 2.003614e-08 0
3.084137e+00 1.180667e-08 0
3.084137e+00 2.089023e-09 0
3.084137e+00 -3.480529e-09 0
3.084137e+00 -2.809674e-09 0
3.084137e+00 2.029712e-09 0
3.084137e+00 7.130092e-09 0
3.084137e+00 9.584143e-09 0
3.084137e+00 8.731945e-09 0
3.084137e+00 5.986553e-09 0
3.084137e+00 3.581834e-09 0
3.084137e+00 3.001686e-09 0
3.084137e+00 4.247828e-09 0
3.084137e+00 6.239838e-09 0
3.084137e+00 7.787830e-09 0
3.084137e+00 8.354522e-09 0
3.084137e+00 8.159737e-09 0
3.084137e+00 7.752044e-09 0
3.084137e+00 7.521507e-09 0
3.084137e+00 7.526883e-09 0
3.084137e+00 7.645841e-09 0
3.084137e+00 7.797154e-09 0
3.084137e+00 8.013592e-09 0
3.084137e+00 8.348685e-09 0
3.084137e+00 8.760559e-09 0
3.084137e+00 9.108278e-09 0
3.084137e+00 9.260701e-09 0
3.084137e+00 9.202613e-09 0
3.084137e+00 9.037553e-09 0
3.084137e+00 8.892791e-09 0
3.084137e+00 8.818043e-09 0
3.084137e+00 8.763505e-09 0
3.084137e+00 8.642247e-09 0
3.084137e+00 8.410138e-09 0
3.084137e+00 8.094454e-09 0
3.084137e+00 7.763236e-09 0
3.084137e+00 7.473226e-09 0
3.084137e+00 7.239278e-09 0
3.084137e+00 7.043086e-09 0
3.084137e+00 6.862468e-09 0
3.084137e+00 6.693750e-09 0
3.084137e+00 6.553081e-09 0
3.084137e+00 6.461340e-09 0
3.084137e+00 6.427909e-09 0
3.084137e+00 6.442708e-09 0
3.084137e+00 6.479253e-09 0
3.084137e+00 6.508317e-09 0
3.084137e+00 6.513471e-09 0
3.084137e+00 6.497529e-09 0
3.084137e+00 6.476317e-09 0
3.084137e+00 6.463735e-09 0
3.084137e+00 6.459146e-09 0
3.084137e+00 6.448094e-09 0
3.084137e+00 6.412382e-09 0
3.084137e+00 6.340914e-09 0
3.084137e+00 6.234536e-09 0
3.084137e+00 6.104012e-09 0
3.084137e+00 5.965148e-09 0
3.084137e+00 5.832749e-09 0
3.084137e+00 5.716114e-09 0
3.084137e+00 5.618160e-09 0
3.084137e+00 5.536565e-09 0
3.084137e+00 5.468486e-09 0
3.084137e+00 5.415076e-09 0
3.084137e+00 5.382044e-09 0
3.084137e+00 5.377187e-09 0
3.084137e+00 5.406352e-09 0
3.084137e+00 5.470677e-09 0
3.084137e+00 5.565317e-09 0
3.084137e+00 5.682394e-09 0
3.084137e+00 5.814996e-09 0
3.084137e+00 5.958348e-09 0
3.084137e+00 6.109896e-09 0
3.084137e+00 6.267640e-09 0
3.084137e+00 6.427509e-09 0
3.084137e+00 6.584716e-09 0
3.084137e+00 6.735209e-09 0
3.084137e+00 6.874947e-09 0
3.084137e+00 7.000189e-09 0
3.084137e+00 7.107145e-09 0
3.084137e+00 7.191515e-09 0
3.084137e+00 7.250154e-09 0
3.084137e+00 7.282540e-09 0
3.084137e+00 7.290279e-09 0
3.084137e+00 7.275750e-09 0
3.084137e+00 7.241613e-09 0
3.084137e+00 7.191142e-09 0
3.084137e+00 7.128209e-09 0
3.084137e+00 7.056925e-09 0
3.084137e+00 6.981596e-09 0
3.084137e+00 6.906310e-09 0
3.084137e+00 6.834500e-09 0
3.084137e+00 6.769090e-09 0
3.084137e+00 6.711610e-09 0
3.084137e+00 6.661533e-09 0
3.084137e+00 6.617374e-09 0
3.084137e+00 6.578235e-09 0
3.084137e+00 6.543069e-09 0
3.084137e+00 6.508966e-09 0
3.084137e+00 6.470479e-09 0
3.084137e+00 6.421125e-09 0
3.084137e+00 6.357167e-09 0
3.084137e+00 6.278800e-09 0
3.084137e+00 6.189343e-09 0
3.084137e+00 6.092869e-09 0
3.084137e+00 5.991792e-09 0
3.084137e+00 5.887697e-09 0
3.084137e+00 5.782018e-09 0
3.084137e+00 5.676499e-09 0
3.084137e+00 5.574262e-09 0
3.084137e+00 5.479329e-09 0
3.084137e+00 5.395714e-09 0
3.084137e+00 5.327274e-09 0
3.084137e+00 5.276920e-09 0
3.084137e+00 5.245720e-09 0
3.084137e+00 5.233319e-09 0
3.084137e+00 5.237944e-09 0
3.084137e+00 5.256593e-09 0
3.084137e+00 5.286319e-09 0
3.084137e+00 5.324820e-09 0
3.084137e+00 5.369873e-09 0
3.084137e+00 5.419027e-09 0
3.084137e+00 5.469519e-09 0
3.084137e+00 5.518177e-09 0
3.084137e+00 5.561983e-09 0
3.084137e+00 5.598617e-09 0
3.084137e+00 5.626502e-09 0
3.084137e+00 5.644505e-09 0
3.084137e+00 5.651830e-09 0
3.084137e+00 5.647946e-09 0
3.084137e+00 5.632564e-09 0
3.084137e+00 5.605572e-09 0
3.084137e+00 5.566962e-09 0
3.084137e+00 5.516801e-09 0
3.084137e+00 5.455233e-09 0
3.084137e+00 5.382573e-09 0
3.084137e+00 5.299199e-09 0
3.084137e+00 5.205347e-09 0
3.084137e+00 5.101160e-09 0
3.084137e+00 4.986856e-09 0
3.084137e+00 4.862121e-09 0
3.084137e+00 4.724848e-09 0
3.084137e+00 4.569934e-09 0
3.084137e+00 4.383388e-09 0
3.084137e+00 4.120193e-09 0
3.084137e+00 3.665905e-09 0
3.084137e+00 1.992696e-09 0
3.084137e+00 6.143948e-10 0
5.947566e+00 1.465025e-08 0
5.947566e+00 2.914431e-08 0
5.947566e+00 4.897058e-08 0
5.947566e+00 5.036617e-08 0
5.947566e+00 3.743884e-08 0
5.947565e+00 2.040643e-08 0
5.947565e+00 9.467845e-09 0
5.947565e+00 9.068716e-09 0
5.947566e+00 1.640725e-08 0
5.947566e+00 2.441376e-08 0
5.947566e+00 2.675040e-08 0
5.947566e+00 2.163902e-08 0
5.947566e+00 1.217831e-08 0
5.947566e+00 3.763473e-09 0
5.947566e+00 5.237673e-10 0
5.947566e+00 2.847957e-09 0
5.947566e+00 7.813614e-09 0
5.947566e+00 1.164316e-08 0
5.947566e+00 1.213698e-08 0
5.947566e+00 9.717388e-09 0
5.947566e+00 6.523743e-09 0
5.947566e+00 4.654198e-09 0
5.947566e+00 4.897779e-09 0
5.947566e+00 6.579317e-09 0
5.947566e+00 8.384583e-09 0
5.947566e+00 9.369829e-09 0
5.947566e+00 9.434722e-09 0
5.947566e+00 9.085890e-09 0
5.947566e+00 8.867646e-09 0
5.947566e+00 8.974755e-09 0
5.947566e+00 9.269406e-09 0
5.947566e+00 9.547123e-09 0
5.947566e+00 9.752459e-09 0
5.947566e+00 9.976866e-09 0
5.947566e+00 1.030476e-08 0
5.947566e+00 1.069411e-08 0
5.947566e+00 1.100366e-08 0
5.947566e+00 1.111831e-08 0
5.947566e+00 1.104162e-08 0
5.947566e+00 1.087560e-08 0
5.947566e+00 1.072052e-08 0
5.947566e+00 1.059361e-08 0
5.947566e+00 1.043326e-08 0
5.947566e+00 1.016989e-08 0
5.947566e+00 9.791199e-09 0
5.947566e+00 9.349817e-09 0
5.947565e+00 8.918271e-09 0
5.947565e+00 8.537033e-09 0
5.947565e+00 8.201004e-09 0
5.947565e+00 7.885290e-09 0
5.947565e+00 7.578952e-09 0
5.947565e+00 7.297732e-09 0
5.947565e+00 7.069210e-09 0
5.947565e+00 6.909132e-09 0
5.947565e+00 6.808547e-09 0
5.947565e+00 6.739736e-09 0
5.947565e+00 6.674741e-09 0
5.947565e+00 6.600977e-09 0
5.947565e+00 6.522890e-09 0
5.947565e+00 6.452251e-09 0
5.947565e+00 6.396850e-09 0
5.947565e+00 6.354481e-09 0
5.947565e+00 6.315121e-09 0
5.947565e+00 6.265193e-09 0
5.947565e+00 6.191547e-09 0
5.947565e+00 6.084553e-09 0
5.947565e+00 5.941899e-09 0
5.947565e+00 5.770631e-09 0
5.947565e+00 5.582910e-09 0
5.947565e+00 5.390549e-09 0
5.947565e+00 5.201147e-09 0
5.947565e+00 5.018152e-09 0
5.947566e+00 4.844862e-09 0
5.947566e+00 4.688309e-09 0
5.947566e+00 4.560078e-09 0
5.947566e+00 4.472730e-09 0
5.947566e+00 4.436802e-09 0
5.947566e+00 4.458913e-09 0
5.947566e+00 4.540961e-09 0
5.947566e+00 4.680719e-09 0
5.947566e+00 4.872354e-09 0
5.947566e+00 5.107882e-09 0
5.947566e+00 5.379196e-09 0
5.947566e+00 5.678863e-09 0
5.947566e+00 5.999094e-09 0
5.947566e+00 6.333017e-09 0
5.947566e+00 6.673865e-09 0
5.947566e+00 7.012576e-09 0
5.947566e+00 7.339444e-09 0
5.947566e+00 7.645553e-09 0
5.947566e+00 7.922498e-09 0
5.947566e+00 8.163736e-09 0
5.947566e+00 8.364764e-09 0
5.947566e+00 8.521376e-09 0
5.947566e+00 8.629952e-09 0
5.947566e+00 8.689701e-09 0
5.947566e+00 8.703374e-09 0
5.947566e+00 8.675903e-09 0
5.947566e+00 8.612687e-09 0
5.947566e+00 8.518481e-09 0
5.947566e+00 8.397754e-09 0
5.947566e+00 8.256217e-09 0
5.947566e+00 8.101536e-09 0
5.947566e+00 7.941184e-09 0
5.947566e+00 7.780160e-09 0
5.947566e+00 7.621430e-09 0
5.947565e+00 7.467371e-09 0
5.947565e+00 7.319974e-09 0
5.947565e+00 7.179954e-09 0
5.947565e+00 7.045483e-09 0
5.947565e+00 6.911996e-09 0
5.947565e+00 6.775330e-09 0
5.947565e+00 6.634296e-09 0
5.947565e+00 6.490752e-09 0
5.947565e+00 6.347800e-09 0
5.947565e+00 6.207161e-09 0
5.947565e+00 6.069456e-09 0
5.947565e+00 5.935098e-09 0
5.947565e+00 5.804909e-09 0
5.947565e+00 5.680797e-09 0
5.947565e+00 5.565325e-09 0
5.947566e+00 5.461855e-09 0
5.947566e+00 5.374686e-09 0
5.947566e+00 5.307733e-09 0
5.947566e+00 5.262916e-09 0
5.947566e+00 5.240198e-09 0
5.947566e+00 5.237984e-09 0
5.947566e+00 5.253514e-09 0
5.947566e+00 5.284193e-09 0
5.947566e+00 5.327643e-09 0
5.947566e+00 5.380924e-09 0
5.947566e+00 5.440905e-09 0
5.947566e+00 5.504036e-09 0
5.947566e+00 5.566195e-09 0
5.947566e+00 5.623432e-09 0
5.947566e+00 5.672556e-09 0
5.947566e+00 5.711003e-09 0
5.947566e+00 5.736608e-09 0
5.947566e+00 5.747781e-09 0
5.947566e+00 5.743329e-09 0
5.947566e+00 5.722329e-09 0
5.947566e+00 5.684203e-09 0
5.947566e+00 5.628771e-09 0
5.947566e+00 5.556005e-09 0
5.947566e+00 5.466004e-09 0
5.947566e+00 5.359138e-09 0
5.947566e+00 5.235878e-09 0
5.947566e+00 5.096589e-09 0
5.947566e+00 4.941474e-09 0
5.947566e+00 4.770676e-09 0
5.947566e+00 4.583990e-09 0
5.947566e+00 4.380037e-09 0
5.947566e+00 4.155177e-09 0
5.947566e+00 3.900755e-09 0
5.947566e+00 3.594681e-09 0
5.947566e+00 3.184665e-09 0
5.947566e+00 2.560711e-09 0
5.947566e+00 1.448420e-09 0
5.947566e+00 7.200106e-10 0
8.591786e+00 1.504076e-08 0
8.591786e+00 2.750662e-08 0
8.591786e+00 4.173761e-08 0
8.591786e+00 3.713126e-08 0
8.591786e+00 2.241775e-08 0
8.591786e+00 9.385149e-09 0
8.591786e+00 5.691446e-09 0
8.591786e+00 1.186712e-08 0
8.591786e+00 2.221944e-08 0
8.591786e+00 2.900891e-08 0
8.591786e+00 2.785783e-08 0
8.591786e+00 1.977797e-08 0
8.591786e+00 9.797813e-09 0
8.591786e+00 3.507538e-09 0
8.591786e+00 3.464825e-09 0
8.591786e+00 8.047466e-09 0
8.591786e+00 1.318200e-08 0
8.591786e+00 1.532692e-08 0
8.591786e+00 1.355221e-08 0
8.591786e+00 9.582822e-09 0
8.591786e+00 6.128014e-09 0
8.591786e+00 4.926347e-09 0
8.591786e+00 5.935040e-09 0
8.591786e+00 7.841079e-09 0
8.591786e+00 9.253056e-09 0
8.591786e+00 9.603123e-09 0
8.591786e+00 9.229135e-09 0
8.591786e+00 8.820888e-09 0
8.591786e+00 8.816654e-09 0
8.591786e+00 9.195897e-09 0
8.591786e+00 9.686841e-09 0
8.591786e+00 1.008854e-08 0
8.591786e+00 1.040777e-08 0
8.591786e+00 1.075537e-08 0
8.591786e+00 1.117196e-08 0
8.591786e+00 1.156780e-08 0
8.591786e+00 1.181032e-08 0
8.591786e+00 1.184864e-08 0
8.591786e+00 1.175098e-08 0
8.591786e+00 1.163138e-08 0
8.591786e+00 1.154709e-08 0
8.591786e+00 1.146074e-08 0
8.591786e+00 1.128903e-08 0
8.591786e+00 1.098271e-08 0
8.591786e+00 1.056651e-08 0
8.591786e+00 1.011427e-08 0
8.591786e+00 9.690763e-09 0
8.591786e+00 9.314538e-09 0
8.591786e+00 8.964659e-09 0
8.591786e+00 8.614260e-09 0
8.591786e+00 8.259862e-09 0
8.591786e+00 7.923870e-09 0
8.591786e+00 7.634028e-09 0
8.591786e+00 7.400107e-09 0
8.591786e+00 7.207002e-09 0
8.591786e+00 7.027578e-09 0
8.591786e+00 6.842150e-09 0
8.591786e+00 6.648521e-09 0
8.591786e+00 6.457592e-09 0
8.591786e+00 6.281302e-09 0
8.591786e+00 6.122775e-09 0
8.591786e+00 5.975784e-09 0
8.591786e+00 5.829818e-09 0
8.591786e+00 5.674047e-09 0
8.591786e+00 5.498399e-09 0
8.591786e+00 5.295795e-09 0
8.591786e+00 5.064286e-09 0
8.591786e+00 4.807832e-09 0
8.591786e+00 4.536328e-09 0
8.591786e+00 4.260927e-09 0
8.591786e+00 3.990960e-09 0
8.591786e+00 3.733868e-09 0
8.591786e+00 3.497298e-09 0
8.591786e+00 3.292163e-09 0
8.591786e+00 3.132309e-09 0
8.591786e+00 3.033601e-09 0
8.591786e+00 3.010102e-09 0
8.591786e+00 3.070343e-09 0
8.591786e+00 3.214893e-09 0
8.591786e+00 3.438307e-09 0
8.591786e+00 3.731335e-09 0
8.591786e+00 4.082561e-09 0
8.591786e+00 4.481044e-09 0
8.591786e+00 4.914860e-09 0
8.591786e+00 5.372914e-09 0
8.591786e+00 5.845682e-09 0
8.591786e+00 6.323416e-09 0
8.591786e+00 6.796895e-09 0
8.591786e+00 7.256227e-09 0
8.591786e+00 7.688667e-09 0
8.591786e+00 8.081699e-09 0
8.591786e+00 8.425788e-09 0
8.591786e+00 8.713162e-09 0
8.591786e+00 8.937859e-09 0
8.591786e+00 9.096743e-09 0
8.591786e+00 9.188963e-09 0
8.591786e+00 9.215877e-09 0
8.591786e+00 9.181211e-09 0
8.591786e+00 9.089928e-09 0
8.591786e+00 8.948015e-09 0
8.591786e+00 8.763605e-09 0
8.591786e+00 8.547270e-09 0
8.591786e+00 8.310573e-09 0
8.591786e+00 8.063990e-09 0
8.591786e+00 7.815982e-09 0
8.591786e+00 7.573260e-09 0
8.591786e+00 7.341607e-09 0
8.591786e+00 7.125903e-09 0
8.591786e+00 6.928319e-09 0
8.591786e+00 6.746650e-09 0
8.591786e+00 6.576320e-09 0
8.591786e+00 6.414013e-09 0
8.591786e+00 6.259261e-09 0
8.591786e+00 6.113432e-09 0
8.591786e+00 5.976857e-09 0
8.591786e+00 5.847914e-09 0
8.591786e+00 5.724179e-09 0
8.591786e+00 5.603879e-09 0
8.591786e+00 5.486454e-09 0
8.591786e+00 5.372252e-09 0
8.591786e+00 5.263041e-09 0
8.591786e+00 5.162279e-09 0
8.591786e+00 5.074304e-09 0
8.591786e+00 5.002508e-09 0
8.591786e+00 4.948293e-09 0
8.591786e+00 4.911163e-09 0
8.591786e+00 4.889147e-09 0
8.591786e+00 4.880584e-09 0
8.591786e+00 4.884148e-09 0
8.591786e+00 4.897926e-09 0
8.591786e+00 4.919638e-09 0
8.591786e+00 4.946022e-09 0
8.591786e+00 4.972931e-09 0
8.591786e+00 4.996286e-09 0
8.591786e+00 5.012819e-09 0
8.591786e+00 5.019747e-09 0
8.591786e+00 5.014857e-09 0
8.591786e+00 4.996704e-09 0
8.591786e+00 4.963956e-09 0
8.591786e+00 4.915383e-09 0
8.591786e+00 4.850234e-09 0
8.591786e+00 4.768384e-09 0
8.591786e+00 4.669983e-09 0
8.591786e+00 4.555384e-09 0
8.591786e+00 4.425186e-09 0
8.591786e+00 4.280138e-09 0
8.591786e+00 4.120962e-09 0
8.591786e+00 3.947928e-09 0
8.591786e+00 3.760978e-09 0
8.591786e+00 3.559987e-09 0
8.591786e+00 3.344354e-09 0
8.591786e+00 3.112395e-09 0
8.591786e+00 2.860750e-09 0
8.591786e+00 2.582507e-09 0
8.591786e+00 2.261780e-09 0
8.591786e+00 1.871172e-09 0
8.591786e+00 1.396104e-09 0
8.591786e+00 7.582921e-10 0
8.591786e+00 3.787148e-10 0
1.101826e+01 1.244655e-08 0
1.101826e+01 2.022509e-08 0
1.101826e+01 2.580183e-08 0
1.101826e+01 1.576629e-08 0
1.101826e+01 1.541753e-09 0
1.101826e+01 -5.449797e-09 0
1.101826e+01 -9.040104e-10 0
1.101826e+01 1.145232e-08 0
1.101826e+01 2.347638e-08 0
1.101826e+01 2.815078e-08 0
1.101826e+01 2.358184e-08 0
1.101826e+01 1.361307e-08 0
1.101826e+01 4.790025e-09 0
1.101826e+01 1.914166e-09 0
1.101826e+01 5.465103e-09 0
1.101826e+01 1.202040e-08 0
1.101826e+01 1.693159e-08 0
1.101826e+01 1.740269e-08 0
1.101826e+01 1.396905e-08 0
1.101826e+01 9.414516e-09 0
1.101826e+01 6.440700e-09 0
1.101826e+01 6.072352e-09 0
1.101826e+01 7.464803e-09 0
1.101826e+01 9.009421e-09 0
1.101826e+01 9.618455e-09 0
1.101826e+01 9.263179e-09 0
1.101826e+01 8.613153e-09 0
1.101826e+01 8.311356e-09 0
1.101826e+01 8.524058e-09 0
1.101826e+01 9.010065e-09 0
1.101826e+01 9.482349e-09 0
1.101826e+01 9.867738e-09 0
1.101826e+01 1.027430e-08 0
1.101826e+01 1.078539e-08 0
1.101826e+01 1.132253e-08 0
1.101826e+01 1.170064e-08 0
1.101826e+01 1.179535e-08 0
1.101826e+01 1.164863e-08 0
1.101826e+01 1.142089e-08 0
1.101826e+01 1.124993e-08 0
1.101826e+01 1.115006e-08 0
1.101826e+01 1.102908e-08 0
1.101826e+01 1.078861e-08 0
1.101826e+01 1.041034e-08 0
1.101826e+01 9.961282e-09 0
1.101826e+01 9.531144e-09 0
1.101826e+01 9.167305e-09 0
1.101826e+01 8.858431e-09 0
1.101826e+01 8.565889e-09 0
1.101826e+01 8.266723e-09 0
1.101826e+01 7.970920e-09 0
1.101826e+01 7.705386e-09 0
1.101826e+01 7.486919e-09 0
1.101826e+01 7.308648e-09 0
1.101826e+01 7.147210e-09 0
1.101826e+01 6.979867e-09 0
1.101826e+01 6.796337e-09 0
1.101826e+01 6.599484e-09 0
1.101826e+01 6.397590e-09 0
1.101826e+01 6.196141e-09 0
1.101826e+01 5.996007e-09 0
1.101826e+01 5.794828e-09 0
1.101826e+01 5.586591e-09 0
1.101826e+01 5.361406e-09 0
1.101826e+01 5.106980e-09 0
1.101826e+01 4.813411e-09 0
1.101826e+01 4.479318e-09 0
1.101826e+01 4.113106e-09 0
1.101826e+01 3.726529e-09 0
1.101826e+01 3.329306e-09 0
1.101826e+01 2.931319e-09 0
1.101826e+01 2.545781e-09 0
1.101826e+01 2.189574e-09 0
1.101826e+01 1.882053e-09 0