<?xml version="1.0"?>
<VTKFile type="StructuredGrid">
<StructuredGrid WholeExtent="0 158 0 30 0 0 ">
<Piece Extent="0 158 0 30 0 0 ">
<Points>
<DataArray type="Float64" format="ascii" NumberOfComponents="3">
0.000000e+00 0.000000e+00 0.000000e+00
3.164557e-02 0.000000e+00 0.000000e+00
6.329114e-02 0.000000e+00 0.000000e+00
9.493671e-02 0.000000e+00 0.000000e+00
1.265823e-01 0.000000e+00 0.000000e+00
1.582278e-01 0.000000e+00 0.000000e+00
1.898734e-01 0.000000e+00 0.000000e+00
2.215190e-01 0.000000e+00 0.000000e+00
2.531646e-01 0.000000e+00 0.000000e+00
2.848101e-01 0.000000e+00 0.000000e+00
3.164557e-01 0.000000e+00 0.000000e+00
3.481013e-01 0.000000e+00 0.000000e+00
3.797468e-01 0.000000e+00 0.000000e+00
4.113924e-01 0.000000e+00 0.000000e+00
4.430380e-01 0.000000e+00 0.000000e+00
4.746835e-01 0.000000e+00 0.000000e+00
5.063291e-01 0.000000e+00 0.000000e+00
5.379747e-01 0.000000e+00 0.000000e+00
5.696203e-01 0.000000e+00 0.000000e+00
6.012658e-01 0.000000e+00 0.000000e+00
6.329114e-01 0.000000e+00 0.000000e+00
6.645570e-01 0.000000e+00 0.000000e+00
6.962025e-01 0.000000e+00 0.000000e+00
7.278481e-01 0.000000e+00 0.000000e+00
7.594937e-01 0.000000e+00 0.000000e+00
7.911392e-01 0.000000e+00 0.000000e+00
8.227848e-01 0.000000e+00 0.000000e+00
8.544304e-01 0.000000e+00 0.000000e+00
8.860759e-01 0.000000e+00 0.000000e+00
9.177215e-01 0.000000e+00 0.000000e+00
9.493671e-01 0.000000e+00 0.000000e+00
9.810127e-01 0.000000e+00 0.000000e+00
1.012658e+00 0.000000e+00 0.000000e+00
1.044304e+00 0.000000e+00 0.000000e+00
1.075949e+00 0.000000e+00 0.000000e+00
1.107595e+00 0.000000e+00 0.000000e+00
1.139241e+00 0.000000e+00 0.000000e+00
1.170886e+00 0.000000e+00 0.000000e+00
1.202532e+00 0.000000e+00 0.000000e+00
1.234177e+00 0.000000e+00 0.000000e+00
1.265823e+00 0.000000e+00 0.000000e+00
1.297468e+00 0.000000e+00 0.000000e+00
1.329114e+00 0.000000e+00 0.000000e+00
1.360759e+00 0.000000e+00 0.000000e+00
1.392405e+00 0.000000e+00 0.000000e+00
1.424051e+00 0.000000e+00 0.000000e+00
1.455696e+00 0.000000e+00 0.000000e+00
1.487342e+00 0.000000e+00 0.000000e+00
1.518987e+00 0.000000e+00 0.000000e+00
1.550633e+00 0.000000e+00 0.000000e+00
1.582278e+00 0.000000e+00 0.000000e+00
1.613924e+00 0.000000e+00 0.000000e+00
1.645570e+00 0.000000e+00 0.000000e+00
1.677215e+00 0.000000e+00 0.000000e+00
1.708861e+00 0.000000e+00 0.000000e+00
1.740506e+00 0.000000e+00 0.000000e+00
1.772152e+00 0.000000e+00 0.000000e+00
1.803797e+00 0.000000e+00 0.000000e+00
1.835443e+00 0.000000e+00 0.000000e+00
1.867089e+00 0.000000e+00 0.000000e+00
1.898734e+00 0.000000e+00 0.000000e+00
1.930380e+00 0.000000e+00 0.000000e+00
1.962025e+00 0.000000e+00 0.000000e+00
1.993671e+00 0.000000e+00 0.000000e+00
2.025316e+00 0.000000e+00 0.000000e+00
2.056962e+00 0.000000e+00 0.000000e+00
2.088608e+00 0.000000e+00 0.000000e+00
2.120253e+00 0.000000e+00 0.000000e+00
2.151899e+00 0.000000e+00 0.000000e+00
2.183544e+00 0.000000e+00 0.000000e+00
2.215190e+00 0.000000e+00 0.000000e+00
2.246835e+00 0.000000e+00 0.000000e+00
2.278481e+00 0.000000e+00 0.000000e+00
2.310127e+00 0.000000e+00 0.000000e+00
2.341772e+00 0.000000e+00 0.000000e+00
2.373418e+00 0.000000e+00 0.000000e+00
2.405063e+00 0.000000e+00 0.000000e+00
2.436709e+00 0.000000e+00 0.000000e+00
2.468354e+00 0.000000e+00 0.000000e+00
2.500000e+00 0.000000e+00 0.000000e+00
2.531646e+00 0.000000e+00 0.000000e+00
2.563291e+00 0.000000e+00 0.000000e+00
2.594937e+00 0.000000e+00 0.000000e+00
2.626582e+00 0.000000e+00 0.000000e+00
2.658228e+00 0.000000e+00 0.000000e+00
2.689873e+00 0.000000e+00 0.000000e+00
2.721519e+00 0.000000e+00 0.000000e+00
2.753165e+00 0.000000e+00 0.000000e+00
2.784810e+00 0.000000e+00 0.000000e+00
2.816456e+00 0.000000e+00 0.000000e+00
2.848101e+00 0.000000e+00 0.000000e+00
2.879747e+00 0.000000e+00 0.000000e+00
2.911392e+00 0.000000e+00 0.000000e+00
2.943038e+00 0.000000e+00 0.000000e+00
2.974684e+00 0.000000e+00 0.000000e+00
3.006329e+00 0.000000e+00 0.000000e+00
3.037975e+00 0.000000e+00 0.000000e+00
3.069620e+00 0.000000e+00 0.000000e+00
3.101266e+00 0.000000e+00 0.000000e+00
3.132911e+00 0.000000e+00 0.000000e+00
3.164557e+00 0.000000e+00 0.000000e+00
3.196203e+00 0.000000e+00 0.000000e+00
3.227848e+00 0.000000e+00 0.000000e+00
3.259494e+00 0.000000e+00 0.000000e+00
3.291139e+00 0.000000e+00 0.000000e+00
3.322785e+00 0.000000e+00 0.000000e+00
3.354430e+00 0.000000e+00 0.000000e+00
3.386076e+00 0.000000e+00 0.000000e+00
3.417722e+00 0.000000e+00 0.000000e+00
3.449367e+00 0.000000e+00 0.000000e+00
3.481013e+00 0.000000e+00 0.000000e+00
3.512658e+00 0.000000e+00 0.000000e+00
3.544304e+00 0.000000e+00 0.000000e+00
3.575949e+00 0.000000e+00 0.000000e+00
3.607595e+00 0.000000e+00 0.000000e+00
3.639241e+00 0.000000e+00 0.000000e+00
3.670886e+00 0.000000e+00 0.000000e+00
3.702532e+00 0.000000e+00 0.000000e+00
3.734177e+00 0.000000e+00 0.000000e+00
3.765823e+00 0.000000e+00 0.000000e+00
3.797468e+00 0.000000e+00 0.000000e+00
3.829114e+00 0.000000e+00 0.000000e+00
3.860759e+00 0.000000e+00 0.000000e+00
3.892405e+00 0.000000e+00 0.000000e+00
3.924051e+00 0.000000e+00 0.000000e+00
3.955696e+00 0.000000e+00 0.000000e+00
3.987342e+00 0.000000e+00 0.000000e+00
4.018987e+00 0.000000e+00 0.000000e+00
4.050633e+00 0.000000e+00 0.000000e+00
4.082278e+00 0.000000e+00 0.000000e+00
4.113924e+00 0.000000e+00 0.000000e+00
4.145570e+00 0.000000e+00 0.000000e+00
4.177215e+00 0.000000e+00 0.000000e+00
4.208861e+00 0.000000e+00 0.000000e+00
4.240506e+00 0.000000e+00 0.000000e+00
4.272152e+00 0.000000e+00 0.000000e+00
4.303797e+00 0.000000e+00 0.000000e+00
4.335443e+00 0.000000e+00 0.000000e+00
4.367089e+00 0.000000e+00 0.000000e+00
4.398734e+00 0.000000e+00 0.000000e+00
4.430380e+00 0.000000e+00 0.000000e+00
4.462025e+00 0.000000e+00 0.000000e+00
4.493671e+00 0.000000e+00 0.000000e+00
4.525316e+00 0.000000e+00 0.000000e+00
4.556962e+00 0.000000e+00 0.000000e+00
4.588608e+00 0.000000e+00 0.000000e+00
4.620253e+00 0.000000e+00 0.000000e+00
4.651899e+00 0.000000e+00 0.000000e+00
4.683544e+00 0.000000e+00 0.000000e+00
4.715190e+00 0.000000e+00 0.000000e+00
4.746835e+00 0.000000e+00 0.000000e+00
4.778481e+00 0.000000e+00 0.000000e+00
4.810127e+00 0.000000e+00 0.000000e+00
4.841772e+00 0.000000e+00 0.000000e+00
4.873418e+00 0.000000e+00 0.000000e+00
4.905063e+00 0.000000e+00 0.000000e+00
4.936709e+00 0.000000e+00 0.000000e+00
4.968354e+00 0.000000e+00 0.000000e+00
5.000000e+00 0.000000e+00 0.000000e+00
0.000000e+00 3.333333e-02 0.000000e+00
3.164557e-02 3.333333e-02 0.000000e+00
6.329114e-02 3.333333e-02 0.000000e+00
9.493671e-02 3.333333e-02 0.000000e+00
1.265823e-01 3.333333e-02 0.000000e+00
1.582278e-01 3.333333e-02 0.000000e+00
1.898734e-01 3.333333e-02 0.000000e+00
2.215190e-01 3.333333e-02 0.000000e+00
2.531646e-01 3.333333e-02 0.000000e+00
2.848101e-01 3.333333e-02 0.000000e+00
3.164557e-01 3.333333e-02 0.000000e+00
3.481013e-01 3.333333e-02 0.000000e+00
3.797468e-01 3.333333e-02 0.000000e+00
4.113924e-01 3.333333e-02 0.000000e+00
4.430380e-01 3.333333e-02 0.000000e+00
4.746835e-01 3.333333e-02 0.000000e+00
5.063291e-01 3.333333e-02 0.000000e+00
5.379747e-01 3.333333e-02 0.000000e+00
5.696203e-01 3.333333e-02 0.000000e+00
6.012658e-01 3.333333e-02 0.000000e+00
6.329114e-01 3.333333e-02 0.000000e+00
6.645570e-01 3.333333e-02 0.000000e+00
6.962025e-01 3.333333e-02 0.000000e+00
7.278481e-01 3.333333e-02 0.000000e+00
7.594937e-01 3.333333e-02 0.000000e+00
7.911392e-01 3.333333e-02 0.000000e+00
8.227848e-01 3.333333e-02 0.000000e+00
8.544304e-01 3.333333e-02 0.000000e+00
8.860759e-01 3.333333e-02 0.000000e+00
9.177215e-01 3.333333e-02 0.000000e+00
9.493671e-01 3.333333e-02 0.000000e+00
9.810127e-01 3.333333e-02 0.000000e+00
1.012658e+00 3.333333e-02 0.000000e+00
1.044304e+00 3.333333e-02 0.000000e+00
1.075949e+00 3.333333e-02 0.000000e+00
1.107595e+00 3.333333e-02 0.000000e+00
1.139241e+00 3.333333e-02 0.000000e+00
1.170886e+00 3.333333e-02 0.000000e+00
1.202532e+00 3.333333e-02 0.000000e+00
1.234177e+00 3.333333e-02 0.000000e+00
1.265823e+00 3.333333e-02 0.000000e+00
1.297468e+00 3.333333e-02 0.000000e+00
1.329114e+00 3.333333e-02 0.000000e+00
1.360759e+00 3.333333e-02 0.000000e+00
1.392405e+00 3.333333e-02 0.000000e+00
1.424051e+00 3.333333e-02 0.000000e+00
1.455696e+00 3.333333e-02 0.000000e+00
1.487342e+00 3.333333e-02 0.000000e+00
1.518987e+00 3.333333e-02 0.000000e+00
1.550633e+00 3.333333e-02 0.000000e+00
1.582278e+00 3.333333e-02 0.000000e+00
1.613924e+00 3.333333e-02 0.000000e+00
1.645570e+00 3.333333e-02 0.000000e+00
1.677215e+00 3.333333e-02 0.000000e+00
1.708861e+00 3.333333e-02 0.000000e+00
1.740506e+00 3.333333e-02 0.000000e+00
1.772152e+00 3.333333e-02 0.000000e+00
1.803797e+00 3.333333e-02 0.000000e+00
1.835443e+00 3.333333e-02 0.000000e+00
1.867089e+00 3.333333e-02 0.000000e+00
1.898734e+00 3.333333e-02 0.000000e+00
1.930380e+00 3.333333e-02 0.000000e+00
1.962025e+00 3.333333e-02 0.000000e+00
1.993671e+00 3.333333e-02 0.000000e+00
2.025316e+00 3.333333e-02 0.000000e+00
2.056962e+00 3.333333e-02 0.000000e+00
2.088608e+00 3.333333e-02 0.000000e+00
2.120253e+00 3.333333e-02 0.000000e+00
2.151899e+00 3.333333e-02 0.000000e+00
2.183544e+00 3.333333e-02 0.000000e+00
2.215190e+00 3.333333e-02 0.000000e+00
2.246835e+00 3.333333e-02 0.000000e+00
2.278481e+00 3.333333e-02 0.000000e+00
2.310127e+00 3.333333e-02 0.000000e+00
2.341772e+00 3.333333e-02 0.000000e+00
2.373418e+00 3.333333e-02 0.000000e+00
2.405063e+00 3.333333e-02 0.000000e+00
2.436709e+00 3.333333e-02 0.000000e+00
2.468354e+00 3.333333e-02 0.000000e+00
2.500000e+00 3.333333e-02 0.000000e+00
2.531646e+00 3.333333e-02 0.000000e+00
2.563291e+00 3.333333e-02 0.000000e+00
2.594937e+00 3.333333e-02 0.000000e+00
2.626582e+00 3.333333e-02 0.000000e+00
2.658228e+00 3.333333e-02 0.000000e+00
2.689873e+00 3.333333e-02 0.000000e+00
2.721519e+00 3.333333e-02 0.000000e+00
2.753165e+00 3.333333e-02 0.000000e+00
2.784810e+00 3.333333e-02 0.000000e+00
2.816456e+00 3.333333e-02 0.000000e+00
2.848101e+00 3.333333e-02 0.000000e+00
2.879747e+00 3.333333e-02 0.000000e+00
[...]
<PointData>
<DataArray Name="Velocity" type="Float64" format="ascii" NumberOfComponents="3">
0.000000e+00 0.000000e+00 0
0.000000e+00 0.000000e+00 0
0.000000e+00 0.000000e+00 0
0.000000e+00 0.000000e+00 0
0.000000e+00 0.000000e+00 0
0.000000e+00 0.000000e+00 0
0.000000e+00 0.000000e+00 0
0.000000e+00 0.000000e+00 0
0.000000e+00 0.000000e+00 0
0.000000e+00 0.000000e+00 0
0.000000e+00 0.000000e+00 0
0.000000e+00 0.000000e+00 0
0.000000e+00 0.000000e+00 0
0.000000e+00 0.000000e+00 0
0.000000e+00 0.000000e+00 0
0.000000e+00 0.000000e+00 0
0.000000e+00 0.000000e+00 0
0.000000e+00 0.000000e+00 0
0.000000e+00 0.000000e+00 0
1.506230e-18 0.000000e+00 0
0.000000e+00 0.000000e+00 0
0.000000e+00 0.000000e+00 0
0.000000e+00 0.000000e+00 0
1.506183e-18 0.000000e+00 0
0.000000e+00 0.000000e+00 0
0.000000e+00 0.000000e+00 0
0.000000e+00 0.000000e+00 0
1.506132e-18 0.000000e+00 0
0.000000e+00 0.000000e+00 0
0.000000e+00 0.000000e+00 0
0.000000e+00 0.000000e+00 0
1.506091e-18 0.000000e+00 0
0.000000e+00 0.000000e+00 0
0.000000e+00 0.000000e+00 0
0.000000e+00 0.000000e+00 0
0.000000e+00 0.000000e+00 0
0.000000e+00 0.000000e+00 0
0.000000e+00 0.000000e+00 0
3.012026e-18 0.000000e+00 0
0.000000e+00 0.000000e+00 0
0.000000e+00 0.000000e+00 0
0.000000e+00 0.000000e+00 0
0.000000e+00 0.000000e+00 0
0.000000e+00 0.000000e+00 0
0.000000e+00 0.000000e+00 0
0.000000e+00 0.000000e+00 0
3.011855e-18 0.000000e+00 0
0.000000e+00 0.000000e+00 0
0.000000e+00 0.000000e+00 0
0.000000e+00 0.000000e+00 0
0.000000e+00 0.000000e+00 0
0.000000e+00 0.000000e+00 0
0.000000e+00 0.000000e+00 0
0.000000e+00 0.000000e+00 0
3.011707e-18 0.000000e+00 0
0.000000e+00 0.000000e+00 0
0.000000e+00 0.000000e+00 0
0.000000e+00 0.000000e+00 0
0.000000e+00 0.000000e+00 0
0.000000e+00 0.000000e+00 0
0.000000e+00 0.000000e+00 0
0.000000e+00 0.000000e+00 0
3.011549e-18 0.000000e+00 0
0.000000e+00 0.000000e+00 0
0.000000e+00 0.000000e+00 0
0.000000e+00 0.000000e+00 0
0.000000e+00 0.000000e+00 0
0.000000e+00 0.000000e+00 0
0.000000e+00 0.000000e+00 0
0.000000e+00 0.000000e+00 0
0.000000e+00 0.000000e+00 0
0.000000e+00 0.000000e+00 0
0.000000e+00 0.000000e+00 0
0.000000e+00 0.000000e+00 0
0.000000e+00 0.000000e+00 0
0.000000e+00 0.000000e+00 0
0.000000e+00 0.000000e+00 0
0.000000e+00 0.000000e+00 0
0.000000e+00 0.000000e+00 0
0.000000e+00 0.000000e+00 0
0.000000e+00 0.000000e+00 0
0.000000e+00 0.000000e+00 0
0.000000e+00 0.000000e+00 0
0.000000e+00 0.000000e+00 0
0.000000e+00 0.000000e+00 0
0.000000e+00 0.000000e+00 0
0.000000e+00 0.000000e+00 0
0.000000e+00 0.000000e+00 0
0.000000e+00 0.000000e+00 0
0.000000e+00 0.000000e+00 0
0.000000e+00 0.000000e+00 0
0.000000e+00 0.000000e+00 0
0.000000e+00 0.000000e+00 0
0.000000e+00 0.000000e+00 0
0.000000e+00 0.000000e+00 0
0.000000e+00 0.000000e+00 0
0.000000e+00 0.000000e+00 0
0.000000e+00 0.000000e+00 0
0.000000e+00 0.000000e+00 0
0.000000e+00 0.000000e+00 0
0.000000e+00 0.000000e+00 0
0.000000e+00 0.000000e+00 0
0.000000e+00 0.000000e+00 0
0.000000e+00 0.000000e+00 0
0.000000e+00 0.000000e+00 0
0.000000e+00 0.000000e+00 0
0.000000e+00 0.000000e+00 0
0.000000e+00 0.000000e+00 0
0.000000e+00 0.000000e+00 0
0.000000e+00 0.000000e+00 0
0.000000e+00 0.000000e+00 0
0.000000e+00 0.000000e+00 0
0.000000e+00 0.000000e+00 0
0.000000e+00 0.000000e+00 0
0.000000e+00 0.000000e+00 0
0.000000e+00 0.000000e+00 0
0.000000e+00 0.000000e+00 0
0.000000e+00 0.000000e+00 0
0.000000e+00 0.000000e+00 0
0.000000e+00 0.000000e+00 0
0.000000e+00 0.000000e+00 0
0.000000e+00 0.000000e+00 0
0.000000e+00 0.000000e+00 0
0.000000e+00 0.000000e+00 0
0.000000e+00 0.000000e+00 0
0.000000e+00 0.000000e+00 0
0.000000e+00 0.000000e+00 0
0.000000e+00 0.000000e+00 0
0.000000e+00 0.000000e+00 0
0.000000e+00 0.000000e+00 0
0.000000e+00 0.000000e+00 0
0.000000e+00 0.000000e+00 0
0.000000e+00 0.000000e+00 0
0.000000e+00 0.000000e+00 0
0.000000e+00 0.000000e+00 0
0.000000e+00 0.000000e+00 0
0.000000e+00 0.000000e+00 0
0.000000e+00 0.000000e+00 0
0.000000e+00 0.000000e+00 0
0.000000e+00 0.000000e+00 0
0.000000e+00 0.000000e+00 0
0.000000e+00 0.000000e+00 0
0.000000e+00 0.000000e+00 0
0.000000e+00 0.000000e+00 0
0.000000e+00 0.000000e+00 0
0.000000e+00 0.000000e+00 0
0.000000e+00 0.000000e+00 0
0.000000e+00 0.000000e+00 0
0.000000e+00 0.000000e+00 0
0.000000e+00 0.000000e+00 0
0.000000e+00 0.000000e+00 0
0.000000e+00 0.000000e+00 0
0.000000e+00 0.000000e+00 0
0.000000e+00 0.000000e+00 0
0.000000e+00 0.000000e+00 0
0.000000e+00 0.000000e+00 0
0.000000e+00 0.000000e+00 0
0.000000e+00 0.000000e+00 0
0.000000e+00 0.000000e+00 0
3.016148e+00 -1.675684e-08 0
3.016148e+00 -2.874376e-08 0
3.016148e+00 -3.827542e-08 0
3.016148e+00 -2.816679e-08 0
3.016148e+00 -1.746673e-08 0
3.016148e+00 -1.820029e-08 0
3.016148e+00 -2.838919e-08 0
3.016148e+00 -3.817475e-08 0
3.016148e+00 -4.000984e-08 0
3.016148e+00 -3.391247e-08 0
3.016148e+00 -2.484064e-08 0
3.016148e+00 -1.771342e-08 0
3.016148e+00 -1.405460e-08 0
3.016148e+00 -1.212665e-08 0
3.016148e+00 -9.782669e-09 0
3.016148e+00 -6.432166e-09 0
3.016148e+00 -2.903465e-09 0
3.016148e+00 -3.115320e-10 0
3.016148e+00 1.073800e-09 0
3.016148e+00 1.825610e-09 0
3.016148e+00 2.626194e-09 0
3.016148e+00 3.771667e-09 0
3.016148e+00 5.093243e-09 0
3.016148e+00 6.233711e-09 0
3.016148e+00 6.946926e-09 0
3.016148e+00 7.220311e-09 0
3.016148e+00 7.213381e-09 0
3.016148e+00 7.123391e-09 0
3.016148e+00 7.078623e-09 0
3.016148e+00 7.094395e-09 0
3.016148e+00 7.124431e-09 0
3.016148e+00 7.135356e-09 0
3.016148e+00 7.115254e-09 0
3.016148e+00 7.051028e-09 0
3.016148e+00 6.937608e-09 0
3.016148e+00 6.812875e-09 0
3.016148e+00 6.749075e-09 0
3.016148e+00 6.792139e-09 0
3.016148e+00 6.909791e-09 0
3.016148e+00 6.996476e-09 0
3.016148e+00 6.941274e-09 0
3.016148e+00 6.718840e-09 0
3.016148e+00 6.423591e-09 0
3.016148e+00 6.198307e-09 0
3.016148e+00 6.110973e-09 0
3.016148e+00 6.095971e-09 0
3.016148e+00 6.017295e-09 0
3.016148e+00 5.796248e-09 0
3.016148e+00 5.489022e-09 0
3.016148e+00 5.245336e-09 0
3.016148e+00 5.183270e-09 0
3.016148e+00 5.289642e-09 0
3.016148e+00 5.434905e-09 0
3.016148e+00 5.490591e-09 0
3.016148e+00 5.443590e-09 0
3.016148e+00 5.401269e-09 0
3.016148e+00 5.479951e-09 0
3.016148e+00 5.680711e-09 0
3.016148e+00 5.875678e-09 0
3.016148e+00 5.927609e-09 0
3.016148e+00 5.832949e-09 0
3.016148e+00 5.743826e-09 0
3.016148e+00 5.833430e-09 0
3.016148e+00 6.124919e-09 0
3.016148e+00 6.451316e-09 0
3.016148e+00 6.595902e-09 0
3.016148e+00 6.488131e-09 0
3.016148e+00 6.271808e-09 0
3.016148e+00 6.180755e-09 0
3.016148e+00 6.336919e-09 0
3.016148e+00 6.652615e-09 0
3.016148e+00 6.914550e-09 0
3.016148e+00 6.961893e-09 0
3.016148e+00 6.800482e-09 0
3.016148e+00 6.570622e-09 0
3.016148e+00 6.419093e-09 0
3.016148e+00 6.393969e-09 0
3.016148e+00 6.439049e-09 0
3.016148e+00 6.469350e-09 0
3.016148e+00 6.448153e-09 0
3.016148e+00 6.401811e-09 0
3.016148e+00 6.374095e-09 0
3.016148e+00 6.375006e-09 0
3.016148e+00 6.375306e-09 0
3.016148e+00 6.346561e-09 0
3.016148e+00 6.301046e-09 0
3.016148e+00 6.286350e-09 0
3.016148e+00 6.337426e-09 0
3.016148e+00 6.435458e-09 0
3.016148e+00 6.515859e-09 0
3.016148e+00 6.520810e-09 0
3.016148e+00 6.448207e-09 0
3.016148e+00 6.350195e-09 0
3.016148e+00 6.285754e-09 0
3.016148e+00 6.273760e-09 0
3.016148e+00 6.285654e-09 0
3.016148e+00 6.277688e-09 0
3.016148e+00 6.228822e-09 0
3.016148e+00 6.152429e-09 0
3.016148e+00 6.079444e-09 0
3.016148e+00 6.033558e-09 0
3.016148e+00 6.018714e-09 0
3.016148e+00 6.023034e-09 0
3.016148e+00 6.029848e-09 0
3.016148e+00 6.026784e-09 0
3.016148e+00 6.010631e-09 0
3.016148e+00 5.988014e-09 0
3.016148e+00 5.970735e-09 0
3.016148e+00 5.966768e-09 0
3.016148e+00 5.972867e-09 0
3.016148e+00 5.975222e-09 0
3.016148e+00 5.958376e-09 0
3.016148e+00 5.915312e-09 0
3.016148e+00 5.850616e-09 0
3.016148e+00 5.775137e-09 0
3.016148e+00 5.697293e-09 0
3.016148e+00 5.618086e-09 0
3.016148e+00 5.533084e-09 0
3.016148e+00 5.438925e-09 0
3.016148e+00 5.338483e-09 0
3.016148e+00 5.239369e-09 0
3.016148e+00 5.146793e-09 0
3.016148e+00 5.058826e-09 0
3.016148e+00 4.970393e-09 0
3.016148e+00 4.881769e-09 0
3.016148e+00 4.800841e-09 0
3.016148e+00 4.735625e-09 0
3.016148e+00 4.686754e-09 0
3.016148e+00 4.649478e-09 0
3.016148e+00 4.622234e-09 0
3.016148e+00 4.609773e-09 0
3.016148e+00 4.616412e-09 0
3.016148e+00 4.638413e-09 0
3.016148e+00 4.666011e-09 0
3.016148e+00 4.694577e-09 0
3.016148e+00 4.731750e-09 0
3.016148e+00 4.789277e-09 0
3.016148e+00 4.868379e-09 0
3.016148e+00 4.957643e-09 0
3.016148e+00 5.045979e-09 0
3.016148e+00 5.133252e-09 0
3.016148e+00 5.225486e-09 0
3.016148e+00 5.325583e-09 0
3.016148e+00 5.428273e-09 0
3.016148e+00 5.525620e-09 0
3.016148e+00 5.612650e-09 0
3.016148e+00 5.686862e-09 0
3.016148e+00 5.747869e-09 0
3.016148e+00 5.795180e-09 0
3.016148e+00 5.826883e-09 0
3.016148e+00 5.841239e-09 0
3.016148e+00 5.833967e-09 0
3.016148e+00 5.800028e-09 0
3.016148e+00 5.729395e-09 0
3.016148e+00 5.601194e-09 0
3.016148e+00 5.360963e-09 0
3.016148e+00 4.825546e-09 0
3.016148e+00 3.055229e-09 0
3.016148e+00 1.661541e-09 0
5.812332e+00 -7.956807e-09 0
5.812332e+00 -1.080005e-08 0
5.812332e+00 -7.811372e-09 0
5.812333e+00 3.805810e-09 0
5.812333e+00 8.578110e-09 0
5.812333e+00 9.909770e-10 0
5.812333e+00 -1.208618e-08 0
5.812332e+00 -2.096777e-08 0
5.812333e+00 -2.141034e-08 0
5.812333e+00 -1.589441e-08 0
5.812333e+00 -9.862981e-09 0
5.812333e+00 -6.678920e-09 0
5.812333e+00 -5.943149e-09 0
5.812332e+00 -5.457325e-09 0
5.812332e+00 -3.694470e-09 0
5.812332e+00 -9.508761e-10 0
5.812332e+00 1.401846e-09 0
5.812332e+00 2.428026e-09 0
5.812332e+00 2.364859e-09 0
5.812332e+00 2.196646e-09 0
5.812332e+00 2.728444e-09 0
5.812332e+00 3.979009e-09 0
5.812332e+00 5.322675e-09 0
5.812332e+00 6.085798e-09 0
5.812332e+00 6.051802e-09 0
5.812332e+00 5.547569e-09 0
5.812332e+00 5.118134e-09 0
5.812332e+00 5.097792e-09 0
5.812332e+00 5.416218e-09 0
5.812332e+00 5.743757e-09 0
5.812332e+00 5.796367e-09 0
5.812332e+00 5.552678e-09 0
5.812332e+00 5.223221e-09 0
5.812332e+00 5.038670e-09 0
5.812332e+00 5.079965e-09 0
5.812332e+00 5.260952e-09 0
5.812332e+00 5.435539e-09 0
5.812332e+00 5.517585e-09 0
5.812332e+00 5.514310e-09 0
5.812333e+00 5.474504e-09 0
5.812333e+00 5.426024e-09 0
5.812333e+00 5.364206e-09 0
5.812333e+00 5.281838e-09 0
5.812333e+00 5.189384e-09 0
5.812333e+00 5.100590e-09 0
5.812333e+00 5.008509e-09 0
5.812333e+00 4.888753e-09 0
5.812333e+00 4.732896e-09 0
5.812333e+00 4.576596e-09 0
5.812333e+00 4.486314e-09 0
5.812333e+00 4.508446e-09 0
5.812333e+00 4.626680e-09 0
5.812333e+00 4.772588e-09 0
5.812333e+00 4.886038e-09 0
5.812333e+00 4.970202e-09 0
5.812333e+00 5.084460e-09 0
5.812333e+00 5.276272e-09 0
5.812333e+00 5.518364e-09 0
5.812333e+00 5.721621e-09 0
5.812333e+00 5.822149e-09 0
5.812333e+00 5.858575e-09 0
5.812333e+00 5.951984e-09 0
5.812333e+00 6.192748e-09 0
5.812333e+00 6.539679e-09 0
5.812333e+00 6.838450e-09 0
5.812333e+00 6.954454e-09 0
5.812333e+00 6.898298e-09 0
5.812333e+00 6.821973e-09 0
5.812333e+00 6.885789e-09 0
5.812333e+00 7.119397e-09 0
5.812333e+00 7.402085e-09 0
5.812333e+00 7.571319e-09 0
5.812333e+00 7.553637e-09 0
5.812333e+00 7.405611e-09 0
5.812333e+00 7.246413e-09 0
5.812333e+00 7.157566e-09 0
5.812333e+00 7.137119e-09 0
5.812333e+00 7.131477e-09 0
5.812333e+00 7.098565e-09 0
5.812333e+00 7.041216e-09 0
5.812333e+00 6.989233e-09 0
5.812333e+00 6.958915e-09 0
5.812333e+00 6.934723e-09 0
5.812333e+00 6.889907e-09 0
5.812333e+00 6.822578e-09 0
5.812333e+00 6.767061e-09 0
5.812333e+00 6.765502e-09 0
5.812333e+00 6.825351e-09 0
5.812333e+00 6.903847e-09 0
5.812333e+00 6.938783e-09 0
5.812333e+00 6.899387e-09 0
5.812333e+00 6.809599e-09 0
5.812333e+00 6.724332e-09 0
5.812333e+00 6.681877e-09 0
5.812333e+00 6.675575e-09 0
5.812333e+00 6.667453e-09 0
5.812333e+00 6.624780e-09 0
5.812333e+00 6.544995e-09 0
5.812333e+00 6.451851e-09 0
5.812333e+00 6.372587e-09 0
5.812333e+00 6.319625e-09 0
5.812333e+00 6.288716e-09 0
5.812333e+00 6.267132e-09 0
5.812333e+00 6.242148e-09 0
5.812333e+00 6.206808e-09 0
5.812333e+00 6.163144e-09 0
5.812333e+00 6.121379e-09 0
5.812333e+00 6.093429e-09 0
5.812333e+00 6.083447e-09 0
5.812333e+00 6.082784e-09 0
5.812333e+00 6.074825e-09 0
5.812333e+00 6.046399e-09 0
5.812333e+00 5.996061e-09 0
5.812333e+00 5.932691e-09 0
5.812333e+00 5.866697e-09 0
5.812333e+00 5.801902e-09 0
5.812333e+00 5.734269e-09 0
5.812333e+00 5.657382e-09 0
5.812333e+00 5.569699e-09 0
5.812333e+00 5.476785e-09 0
5.812333e+00 5.386052e-09 0
5.812333e+00 5.299366e-09 0
5.812333e+00 5.212362e-09 0
5.812333e+00 5.122187e-09 0
5.812333e+00 5.034420e-09 0
5.812333e+00 4.959382e-09 0
5.812333e+00 4.901982e-09 0
5.812333e+00 4.858256e-09 0
5.812333e+00 4.823525e-09 0
5.812333e+00 4.800964e-09 0
5.812333e+00 4.799051e-09 0
5.812333e+00 4.820150e-09 0
5.812333e+00 4.855673e-09 0
5.812333e+00 4.894670e-09 0
5.812333e+00 4.937439e-09 0
5.812333e+00 4.995784e-09 0
5.812333e+00 5.078104e-09 0
5.812333e+00 5.178335e-09 0
5.812333e+00 5.282971e-09 0
5.812333e+00 5.385127e-09 0
5.812333e+00 5.488087e-09 0
5.812333e+00 5.595923e-09 0
5.812333e+00 5.706125e-09 0
5.812333e+00 5.812010e-09 0
5.812333e+00 5.907157e-09 0
5.812333e+00 5.988063e-09 0
5.812333e+00 6.052901e-09 0
5.812333e+00 6.100750e-09 0
5.812333e+00 6.130729e-09 0
5.812333e+00 6.140873e-09 0
5.812333e+00 6.126728e-09 0
5.812333e+00 6.082394e-09 0
5.812333e+00 5.998019e-09 0
5.812333e+00 5.858334e-09 0
5.812333e+00 5.633779e-09 0
5.812333e+00 5.259258e-09 0
5.812333e+00 4.594709e-09 0
5.812333e+00 3.486494e-09 0
5.812333e+00 2.807112e-09 0
8.390790e+00 1.271986e-09 0
8.390790e+00 9.018418e-09 0
8.390790e+00 2.616814e-08 0
8.390790e+00 3.893851e-08 0
8.390790e+00 3.675217e-08 0
8.390790e+00 2.215679e-08 0
8.390790e+00 6.848918e-09 0
8.390790e+00 -4.224284e-10 0
8.390790e+00 8.206313e-10 0
8.390790e+00 5.154623e-09 0
8.390790e+00 7.498546e-09 0
8.390790e+00 6.684876e-09 0
8.390790e+00 4.857910e-09 0
8.390790e+00 4.470572e-09 0
8.390790e+00 5.899903e-09 0
8.390790e+00 7.735811e-09 0
8.390790e+00 8.375029e-09 0
8.390790e+00 7.387868e-09 0
8.390790e+00 5.663071e-09 0
8.390790e+00 4.470025e-09 0
8.390790e+00 4.443279e-09 0
8.390790e+00 5.248471e-09 0
8.390790e+00 6.003897e-09 0
8.390790e+00 6.017816e-09 0
8.390790e+00 5.252049e-09 0
8.390790e+00 4.226675e-09 0
8.390790e+00 3.547539e-09 0
8.390790e+00 3.467670e-09 0
8.390790e+00 3.776319e-09 0
8.390790e+00 4.041261e-09 0
8.390790e+00 3.973440e-09 0
8.390790e+00 3.610279e-09 0
8.390790e+00 3.221762e-09 0
8.390790e+00 3.065064e-09 0
8.390790e+00 3.192423e-09 0
8.390790e+00 3.463038e-09 0
8.390790e+00 3.696676e-09 0
8.390790e+00 3.805275e-09 0
8.390790e+00 3.816109e-09 0
8.390790e+00 3.801628e-09 0
8.390790e+00 3.803203e-09 0
8.390790e+00 3.812553e-09 0
8.390790e+00 3.802322e-09 0
8.390790e+00 3.758134e-09 0
8.390790e+00 3.683613e-09 0
8.390790e+00 3.589192e-09 0
8.390790e+00 3.488349e-09 0
8.390790e+00 3.405400e-09 0
8.390790e+00 3.377147e-09 0
8.390790e+00 3.434251e-09 0
8.390790e+00 3.573683e-09 0
8.390790e+00 3.752115e-09 0
8.390790e+00 3.916944e-09 0
8.390790e+00 4.053929e-09 0
8.390790e+00 4.204784e-09 0
8.390790e+00 4.427448e-09 0
8.390790e+00 4.727666e-09 0
8.390790e+00 5.030413e-09 0
8.390790e+00 5.233978e-09 0
8.390790e+00 5.308887e-09 0
8.390790e+00 5.345267e-09 0
8.390790e+00 5.486676e-09 0
8.390790e+00 5.797629e-09 0
8.390790e+00 6.189815e-09 0
8.390790e+00 6.488598e-09 0
8.390790e+00 6.587487e-09 0
8.390790e+00 6.546406e-09 0
8.390790e+00 6.538421e-09 0
8.390790e+00 6.694753e-09 0
8.390790e+00 6.993364e-09 0
8.390790e+00 7.288498e-09 0
8.390790e+00 7.441876e-09 0
8.390790e+00 7.429531e-09 0
8.390790e+00 7.337791e-09 0
8.390790e+00 7.272851e-09 0
8.390790e+00 7.277371e-09 0
8.390790e+00 7.321084e-09 0
8.390790e+00 7.353611e-09 0
8.390790e+00 7.357556e-09 0
8.390790e+00 7.354665e-09 0
8.390790e+00 7.370749e-09 0
8.390790e+00 7.402291e-09 0
8.390790e+00 7.419206e-09 0
8.390790e+00 7.399181e-09 0
8.390790e+00 7.356775e-09 0
8.390790e+00 7.335897e-09 0
8.390790e+00 7.369379e-09 0
8.390790e+00 7.442501e-09 0
8.390790e+00 7.498303e-09 0
8.390790e+00 7.483042e-09 0
8.390790e+00 7.390794e-09 0
8.390790e+00 7.266854e-09 0
8.390790e+00 7.166739e-09 0
8.390790e+00 7.110646e-09 0
8.390790e+00 7.074096e-09 0
8.390790e+00 7.016689e-09 0
8.390790e+00 6.919115e-09 0
8.390790e+00 6.795159e-09 0
8.390790e+00 6.673899e-09 0
8.390790e+00 6.576200e-09 0
8.390790e+00 6.505210e-09 0
8.390790e+00 6.451019e-09 0
8.390790e+00 6.400176e-09 0
8.390790e+00 6.342673e-09 0
8.390790e+00 6.275623e-09 0
8.390790e+00 6.204995e-09 0
8.390790e+00 6.143079e-09 0
8.390790e+00 6.099882e-09 0
8.390790e+00 6.074032e-09 0
8.390790e+00 6.052173e-09 0
8.390790e+00 6.018506e-09 0
8.390790e+00 5.966070e-09 0
8.390790e+00 5.899900e-09 0
8.390790e+00 5.830425e-09 0
8.390790e+00 5.764082e-09 0
8.390790e+00 5.699101e-09 0
8.390790e+00 5.628831e-09 0
8.390790e+00 5.549109e-09 0
8.390790e+00 5.463050e-09 0
8.390790e+00 5.378353e-09 0
8.390790e+00 5.299289e-09 0
8.390790e+00 5.221919e-09 0
8.390790e+00 5.139712e-09 0
8.390790e+00 5.054239e-09 0
8.390790e+00 4.977024e-09 0
8.390790e+00 4.918636e-09 0
8.390790e+00 4.878164e-09 0
8.390790e+00 4.846998e-09 0
8.390790e+00 4.822543e-09 0
8.390790e+00 4.813231e-09 0
8.390790e+00 4.827810e-09 0
8.390790e+00 4.862400e-09 0
8.390790e+00 4.902930e-09 0
8.390790e+00 4.941817e-09 0
8.390790e+00 4.987710e-09 0
8.390790e+00 5.054666e-09 0
8.390790e+00 5.143897e-09 0
8.390790e+00 5.241415e-09 0
8.390790e+00 5.334216e-09 0
8.390790e+00 5.422018e-09 0
8.390790e+00 5.510996e-09 0
8.390790e+00 5.603421e-09 0
8.390790e+00 5.694350e-09 0
8.390790e+00 5.777091e-09 0
8.390790e+00 5.846704e-09 0
8.390790e+00 5.899877e-09 0
8.390790e+00 5.936267e-09 0
8.390790e+00 5.956409e-09 0
8.390790e+00 5.959272e-09 0
8.390790e+00 5.941101e-09 0
8.390790e+00 5.895840e-09 0
8.390790e+00 5.816101e-09 0
8.390790e+00 5.692779e-09 0
8.390790e+00 5.512823e-09 0
8.390790e+00 5.254697e-09 0
8.390790e+00 4.886074e-09 0
8.390790e+00 4.381866e-09 0
8.390790e+00 3.814810e-09 0
8.390790e+00 3.535333e-09 0
1.075371e+01 1.079420e-08 0
1.075371e+01 2.804627e-08 0
1.075371e+01 5.547164e-08 0
1.075371e+01 6.445344e-08 0
1.075371e+01 5.352914e-08 0
1.075371e+01 3.411456e-08 0
1.075371e+01 2.045978e-08 0
1.075371e+01 1.755737e-08 0
1.075371e+01 2.071137e-08 0
1.075371e+01 2.286522e-08 0
1.075371e+01 2.091439e-08 0
1.075371e+01 1.679052e-08 0
1.075371e+01 1.409602e-08 0
1.075371e+01 1.438879e-08 0
1.075371e+01 1.624862e-08 0
1.075371e+01 1.704973e-08 0
1.075371e+01 1.542465e-08 0
1.075371e+01 1.206906e-08 0
1.075371e+01 8.793205e-09 0
1.075371e+01 6.992997e-09 0
1.075371e+01 6.753606e-09 0
1.075371e+01 7.103003e-09 0
1.075371e+01 6.949137e-09 0
1.075371e+01 5.878281e-09 0
1.075371e+01 4.301932e-09 0
1.075371e+01 2.983740e-09 0
1.075371e+01 2.406779e-09 0
1.075371e+01 2.471730e-09 0
1.075371e+01 2.684703e-09 0
1.075371e+01 2.589827e-09 0
1.075371e+01 2.099649e-09 0
1.075371e+01 1.502951e-09 0
1.075371e+01 1.174816e-09 0
1.075371e+01 1.266763e-09 0
1.075371e+01 1.634975e-09 0
1.075371e+01 2.009033e-09 0
1.075371e+01 2.220879e-09 0
1.075371e+01 2.298948e-09 0
1.075371e+01 2.377882e-09 0
1.075371e+01 2.548698e-09 0
1.075371e+01 2.786747e-09 0
1.075371e+01 2.998310e-09 0
1.075371e+01 3.114595e-09 0
1.075371e+01 3.141218e-09 0
1.075371e+01 3.134640e-09 0
1.075371e+01 3.147175e-09 0
1.075371e+01 3.196641e-09 0
1.075371e+01 3.277293e-09 0
1.075371e+01 3.384834e-09 0
1.075371e+01 3.522491e-09 0
1.075371e+01 3.685688e-09 0
1.075371e+01 3.852577e-09 0
1.075371e+01 4.002280e-09 0
1.075371e+01 4.146330e-09 0
1.075371e+01 4.332441e-09 0
1.075371e+01 4.600086e-09 0
1.075371e+01 4.922888e-09 0
1.075371e+01 5.204384e-09 0
1.075371e+01 5.353482e-09 0
1.075371e+01 5.380347e-09 0
1.075371e+01 5.412015e-09 0
1.075371e+01 5.590837e-09 0
1.075371e+01 5.938657e-09 0
1.075371e+01 6.320885e-09 0
1.075371e+01 6.558777e-09 0
1.075371e+01 6.590995e-09 0
1.075371e+01 6.529554e-09 0
1.075371e+01 6.555233e-09 0
1.075371e+01 6.754367e-09 0
1.075371e+01 7.051498e-09 0
1.075371e+01 7.291140e-09 0
1.075371e+01 7.377903e-09 0
1.075371e+01 7.342575e-09 0