<?xml version="1.0"?>
<VTKFile type="StructuredGrid">
<StructuredGrid WholeExtent="0 158 0 30 0 0 ">
<Piece Extent="0 158 0 30 0 0 ">
<Points>
<DataArray type="Float64" format="ascii" NumberOfComponents="3">
0.000000e+00 0.000000e+00 0.000000e+00
3.164557e-02 0.000000e+00 0.000000e+00
6.329114e-02 0.000000e+00 0.000000e+00
9.493671e-02 0.000000e+00 0.000000e+00
1.265823e-01 0.000000e+00 0.000000e+00
1.582278e-01 0.000000e+00 0.000000e+00
1.898734e-01 0.000000e+00 0.000000e+00
2.215190e-01 0.000000e+00 0.000000e+00
2.531646e-01 0.000000e+00 0.000000e+00
2.848101e-01 0.000000e+00 0.000000e+00
3.164557e-01 0.000000e+00 0.000000e+00
3.481013e-01 0.000000e+00 0.000000e+00
3.797468e-01 0.000000e+00 0.000000e+00
4.113924e-01 0.000000e+00 0.000000e+00
4.430380e-01 0.000000e+00 0.000000e+00
4.746835e-01 0.000000e+00 0.000000e+00
5.063291e-01 0.000000e+00 0.000000e+00
5.379747e-01 0.000000e+00 0.000000e+00
5.696203e-01 0.000000e+00 0.000000e+00
6.012658e-01 0.000000e+00 0.000000e+00
6.329114e-01 0.000000e+00 0.000000e+00
6.645570e-01 0.000000e+00 0.000000e+00
6.962025e-01 0.000000e+00 0.000000e+00
7.278481e-01 0.000000e+00 0.000000e+00
7.594937e-01 0.000000e+00 0.000000e+00
7.911392e-01 0.000000e+00 0.000000e+00
8.227848e-01 0.000000e+00 0.000000e+00
8.544304e-01 0.000000e+00 0.000000e+00
8.860759e-01 0.000000e+00 0.000000e+00
9.177215e-01 0.000000e+00 0.000000e+00
9.493671e-01 0.000000e+00 0.000000e+00
9.810127e-01 0.000000e+00 0.000000e+00
1.012658e+00 0.000000e+00 0.000000e+00
1.044304e+00 0.000000e+00 0.000000e+00
1.075949e+00 0.000000e+00 0.000000e+00
1.107595e+00 0.000000e+00 0.000000e+00
1.139241e+00 0.000000e+00 0.000000e+00
1.170886e+00 0.000000e+00 0.000000e+00
1.202532e+00 0.000000e+00 0.000000e+00
1.234177e+00 0.000000e+00 0.000000e+00
1.265823e+00 0.000000e+00 0.000000e+00
1.297468e+00 0.000000e+00 0.000000e+00
1.329114e+00 0.000000e+00 0.000000e+00
1.360759e+00 0.000000e+00 0.000000e+00
1.392405e+00 0.000000e+00 0.000000e+00
1.424051e+00 0.000000e+00 0.000000e+00
1.455696e+00 0.000000e+00 0.000000e+00
1.487342e+00 0.000000e+00 0.000000e+00
1.518987e+00 0.000000e+00 0.000000e+00
1.550633e+00 0.000000e+00 0.000000e+00
1.582278e+00 0.000000e+00 0.000000e+00
1.613924e+00 0.000000e+00 0.000000e+00
1.645570e+00 0.000000e+00 0.000000e+00
1.677215e+00 0.000000e+00 0.000000e+00
1.708861e+00 0.000000e+00 0.000000e+00
1.740506e+00 0.000000e+00 0.000000e+00
1.772152e+00 0.000000e+00 0.000000e+00
1.803797e+00 0.000000e+00 0.000000e+00
1.835443e+00 0.000000e+00 0.000000e+00
1.867089e+00 0.000000e+00 0.000000e+00
1.898734e+00 0.000000e+00 0.000000e+00
1.930380e+00 0.000000e+00 0.000000e+00
1.962025e+00 0.000000e+00 0.000000e+00
1.993671e+00 0.000000e+00 0.000000e+00
2.025316e+00 0.000000e+00 0.000000e+00
2.056962e+00 0.000000e+00 0.000000e+00
2.088608e+00 0.000000e+00 0.000000e+00
2.120253e+00 0.000000e+00 0.000000e+00
2.151899e+00 0.000000e+00 0.000000e+00
2.183544e+00 0.000000e+00 0.000000e+00
2.215190e+00 0.000000e+00 0.000000e+00
2.246835e+00 0.000000e+00 0.000000e+00
2.278481e+00 0.000000e+00 0.000000e+00
2.310127e+00 0.000000e+00 0.000000e+00
2.341772e+00 0.000000e+00 0.000000e+00
2.373418e+00 0.000000e+00 0.000000e+00
2.405063e+00 0.000000e+00 0.000000e+00
2.436709e+00 0.000000e+00 0.000000e+00
2.468354e+00 0.000000e+00 0.000000e+00
2.500000e+00 0.000000e+00 0.000000e+00
2.531646e+00 0.000000e+00 0.000000e+00
2.563291e+00 0.000000e+00 0.000000e+00
2.594937e+00 0.000000e+00 0.000000e+00
2.626582e+00 0.000000e+00 0.000000e+00
2.658228e+00 0.000000e+00 0.000000e+00
2.689873e+00 0.000000e+00 0.000000e+00
2.721519e+00 0.000000e+00 0.000000e+00
2.753165e+00 0.000000e+00 0.000000e+00
2.784810e+00 0.000000e+00 0.000000e+00
2.816456e+00 0.000000e+00 0.000000e+00
2.848101e+00 0.000000e+00 0.000000e+00
2.879747e+00 0.000000e+00 0.000000e+00
2.911392e+00 0.000000e+00 0.000000e+00
2.943038e+00 0.000000e+00 0.000000e+00
2.974684e+00 0.000000e+00 0.000000e+00
3.006329e+00 0.000000e+00 0.000000e+00
3.037975e+00 0.000000e+00 0.000000e+00
3.069620e+00 0.000000e+00 0.000000e+00
3.101266e+00 0.000000e+00 0.000000e+00
3.132911e+00 0.000000e+00 0.000000e+00
3.164557e+00 0.000000e+00 0.000000e+00
3.196203e+00 0.000000e+00 0.000000e+00
3.227848e+00 0.000000e+00 0.000000e+00
3.259494e+00 0.000000e+00 0.000000e+00
3.291139e+00 0.000000e+00 0.000000e+00
3.322785e+00 0.000000e+00 0.000000e+00
3.354430e+00 0.000000e+00 0.000000e+00
3.386076e+00 0.000000e+00 0.000000e+00
3.417722e+00 0.000000e+00 0.000000e+00
3.449367e+00 0.000000e+00 0.000000e+00
3.481013e+00 0.000000e+00 0.000000e+00
3.512658e+00 0.000000e+00 0.000000e+00
3.544304e+00 0.000000e+00 0.000000e+00
3.575949e+00 0.000000e+00 0.000000e+00
3.607595e+00 0.000000e+00 0.000000e+00
3.639241e+00 0.000000e+00 0.000000e+00
3.670886e+00 0.000000e+00 0.000000e+00
3.702532e+00 0.000000e+00 0.000000e+00
3.734177e+00 0.000000e+00 0.000000e+00
3.765823e+00 0.000000e+00 0.000000e+00
3.797468e+00 0.000000e+00 0.000000e+00
3.829114e+00 0.000000e+00 0.000000e+00
3.860759e+00 0.000000e+00 0.000000e+00
3.892405e+00 0.000000e+00 0.000000e+00
3.924051e+00 0.000000e+00 0.000000e+00
3.955696e+00 0.000000e+00 0.000000e+00
3.987342e+00 0.000000e+00 0.000000e+00
4.018987e+00 0.000000e+00 0.000000e+00
4.050633e+00 0.000000e+00 0.000000e+00
4.082278e+00 0.000000e+00 0.000000e+00
4.113924e+00 0.000000e+00 0.000000e+00
4.145570e+00 0.000000e+00 0.000000e+00
4.177215e+00 0.000000e+00 0.000000e+00
4.208861e+00 0.000000e+00 0.000000e+00
4.240506e+00 0.000000e+00 0.000000e+00
4.272152e+00 0.000000e+00 0.000000e+00
4.303797e+00 0.000000e+00 0.000000e+00
4.335443e+00 0.000000e+00 0.000000e+00
4.367089e+00 0.000000e+00 0.000000e+00
4.398734e+00 0.000000e+00 0.000000e+00
4.430380e+00 0.000000e+00 0.000000e+00
4.462025e+00 0.000000e+00 0.000000e+00
4.493671e+00 0.000000e+00 0.000000e+00
4.525316e+00 0.000000e+00 0.000000e+00
4.556962e+00 0.000000e+00 0.000000e+00
4.588608e+00 0.000000e+00 0.000000e+00
4.620253e+00 0.000000e+00 0.000000e+00
4.651899e+00 0.000000e+00 0.000000e+00
4.683544e+00 0.000000e+00 0.000000e+00
4.715190e+00 0.000000e+00 0.000000e+00
4.746835e+00 0.000000e+00 0.000000e+00
4.778481e+00 0.000000e+00 0.000000e+00
4.810127e+00 0.000000e+00 0.000000e+00
4.841772e+00 0.000000e+00 0.000000e+00
4.873418e+00 0.000000e+00 0.000000e+00
4.905063e+00 0.000000e+00 0.000000e+00
4.936709e+00 0.000000e+00 0.000000e+00
4.968354e+00 0.000000e+00 0.000000e+00
5.000000e+00 0.000000e+00 0.000000e+00
0.000000e+00 3.333333e-02 0.000000e+00
3.164557e-02 3.333333e-02 0.000000e+00
6.329114e-02 3.333333e-02 0.000000e+00
9.493671e-02 3.333333e-02 0.000000e+00
1.265823e-01 3.333333e-02 0.000000e+00
1.582278e-01 3.333333e-02 0.000000e+00
1.898734e-01 3.333333e-02 0.000000e+00
2.215190e-01 3.333333e-02 0.000000e+00
2.531646e-01 3.333333e-02 0.000000e+00
2.848101e-01 3.333333e-02 0.000000e+00
3.164557e-01 3.333333e-02 0.000000e+00
3.481013e-01 3.333333e-02 0.000000e+00
3.797468e-01 3.333333e-02 0.000000e+00
4.113924e-01 3.333333e-02 0.000000e+00
4.430380e-01 3.333333e-02 0.000000e+00
4.746835e-01 3.333333e-02 0.000000e+00
5.063291e-01 3.333333e-02 0.000000e+00
5.379747e-01 3.333333e-02 0.000000e+00
5.696203e-01 3.333333e-02 0.000000e+00
6.012658e-01 3.333333e-02 0.000000e+00
6.329114e-01 3.333333e-02 0.000000e+00
6.645570e-01 3.333333e-02 0.000000e+00
6.962025e-01 3.333333e-02 0.000000e+00
7.278481e-01 3.333333e-02 0.000000e+00
7.594937e-01 3.333333e-02 0.000000e+00
7.911392e-01 3.333333e-02 0.000000e+00
8.227848e-01 3.333333e-02 0.000000e+00
8.544304e-01 3.333333e-02 0.000000e+00
8.860759e-01 3.333333e-02 0.000000e+00
9.177215e-01 3.333333e-02 0.000000e+00
9.493671e-01 3.333333e-02 0.000000e+00
9.810127e-01 3.333333e-02 0.000000e+00
1.012658e+00 3.333333e-02 0.000000e+00
1.044304e+00 3.333333e-02 0.000000e+00
1.075949e+00 3.333333e-02 0.000000e+00
1.107595e+00 3.333333e-02 0.000000e+00
1.139241e+00 3.333333e-02 0.000000e+00
1.170886e+00 3.333333e-02 0.000000e+00
1.202532e+00 3.333333e-02 0.000000e+00
1.234177e+00 3.333333e-02 0.000000e+00
1.265823e+00 3.333333e-02 0.000000e+00
1.297468e+00 3.333333e-02 0.000000e+00
1.329114e+00 3.333333e-02 0.000000e+00
1.360759e+00 3.333333e-02 0.000000e+00
1.392405e+00 3.333333e-02 0.000000e+00
1.424051e+00 3.333333e-02 0.000000e+00
1.455696e+00 3.333333e-02 0.000000e+00
1.487342e+00 3.333333e-02 0.000000e+00
1.518987e+00 3.333333e-02 0.000000e+00
1.550633e+00 3.333333e-02 0.000000e+00
1.582278e+00 3.333333e-02 0.000000e+00
1.613924e+00 3.333333e-02 0.000000e+00
1.645570e+00 3.333333e-02 0.000000e+00
1.677215e+00 3.333333e-02 0.000000e+00
1.708861e+00 3.333333e-02 0.000000e+00
1.740506e+00 3.333333e-02 0.000000e+00
1.772152e+00 3.333333e-02 0.000000e+00
1.803797e+00 3.333333e-02 0.000000e+00
1.835443e+00 3.333333e-02 0.000000e+00
1.867089e+00 3.333333e-02 0.000000e+00
1.898734e+00 3.333333e-02 0.000000e+00
1.930380e+00 3.333333e-02 0.000000e+00
1.962025e+00 3.333333e-02 0.000000e+00
1.993671e+00 3.333333e-02 0.000000e+00
2.025316e+00 3.333333e-02 0.000000e+00
2.056962e+00 3.333333e-02 0.000000e+00
2.088608e+00 3.333333e-02 0.000000e+00
2.120253e+00 3.333333e-02 0.000000e+00
2.151899e+00 3.333333e-02 0.000000e+00
2.183544e+00 3.333333e-02 0.000000e+00
2.215190e+00 3.333333e-02 0.000000e+00
2.246835e+00 3.333333e-02 0.000000e+00
2.278481e+00 3.333333e-02 0.000000e+00
2.310127e+00 3.333333e-02 0.000000e+00
2.341772e+00 3.333333e-02 0.000000e+00
2.373418e+00 3.333333e-02 0.000000e+00
2.405063e+00 3.333333e-02 0.000000e+00
2.436709e+00 3.333333e-02 0.000000e+00
2.468354e+00 3.333333e-02 0.000000e+00
2.500000e+00 3.333333e-02 0.000000e+00
2.531646e+00 3.333333e-02 0.000000e+00
2.563291e+00 3.333333e-02 0.000000e+00
2.594937e+00 3.333333e-02 0.000000e+00
2.626582e+00 3.333333e-02 0.000000e+00
2.658228e+00 3.333333e-02 0.000000e+00
2.689873e+00 3.333333e-02 0.000000e+00
2.721519e+00 3.333333e-02 0.000000e+00
2.753165e+00 3.333333e-02 0.000000e+00
2.784810e+00 3.333333e-02 0.000000e+00
2.816456e+00 3.333333e-02 0.000000e+00
2.848101e+00 3.333333e-02 0.000000e+00
2.879747e+00 3.333333e-02 0.000000e+00
[...]
<PointData>
<DataArray Name="Velocity" type="Float64" format="ascii" NumberOfComponents="3">
0.000000e+00 0.000000e+00 0
0.000000e+00 0.000000e+00 0
0.000000e+00 0.000000e+00 0
0.000000e+00 0.000000e+00 0
0.000000e+00 0.000000e+00 0
0.000000e+00 0.000000e+00 0
0.000000e+00 0.000000e+00 0
0.000000e+00 0.000000e+00 0
0.000000e+00 0.000000e+00 0
0.000000e+00 0.000000e+00 0
0.000000e+00 0.000000e+00 0
0.000000e+00 0.000000e+00 0
0.000000e+00 0.000000e+00 0
0.000000e+00 0.000000e+00 0
0.000000e+00 0.000000e+00 0
0.000000e+00 0.000000e+00 0
0.000000e+00 0.000000e+00 0
0.000000e+00 0.000000e+00 0
0.000000e+00 0.000000e+00 0
-2.464087e-17 0.000000e+00 0
0.000000e+00 0.000000e+00 0
0.000000e+00 0.000000e+00 0
0.000000e+00 0.000000e+00 0
-2.464092e-17 0.000000e+00 0
0.000000e+00 0.000000e+00 0
0.000000e+00 0.000000e+00 0
0.000000e+00 0.000000e+00 0
-2.464099e-17 0.000000e+00 0
0.000000e+00 0.000000e+00 0
0.000000e+00 0.000000e+00 0
0.000000e+00 0.000000e+00 0
-2.464104e-17 0.000000e+00 0
0.000000e+00 0.000000e+00 0
0.000000e+00 0.000000e+00 0
0.000000e+00 0.000000e+00 0
0.000000e+00 0.000000e+00 0
0.000000e+00 0.000000e+00 0
0.000000e+00 0.000000e+00 0
-4.928231e-17 0.000000e+00 0
0.000000e+00 0.000000e+00 0
0.000000e+00 0.000000e+00 0
0.000000e+00 0.000000e+00 0
0.000000e+00 0.000000e+00 0
0.000000e+00 0.000000e+00 0
0.000000e+00 0.000000e+00 0
0.000000e+00 0.000000e+00 0
-4.928256e-17 0.000000e+00 0
0.000000e+00 0.000000e+00 0
0.000000e+00 0.000000e+00 0
0.000000e+00 0.000000e+00 0
0.000000e+00 0.000000e+00 0
0.000000e+00 0.000000e+00 0
0.000000e+00 0.000000e+00 0
0.000000e+00 0.000000e+00 0
-4.928280e-17 0.000000e+00 0
0.000000e+00 0.000000e+00 0
0.000000e+00 0.000000e+00 0
0.000000e+00 0.000000e+00 0
0.000000e+00 0.000000e+00 0
0.000000e+00 0.000000e+00 0
0.000000e+00 0.000000e+00 0
0.000000e+00 0.000000e+00 0
-4.928303e-17 0.000000e+00 0
0.000000e+00 0.000000e+00 0
0.000000e+00 0.000000e+00 0
0.000000e+00 0.000000e+00 0
0.000000e+00 0.000000e+00 0
0.000000e+00 0.000000e+00 0
0.000000e+00 0.000000e+00 0
0.000000e+00 0.000000e+00 0
0.000000e+00 0.000000e+00 0
0.000000e+00 0.000000e+00 0
0.000000e+00 0.000000e+00 0
0.000000e+00 0.000000e+00 0
0.000000e+00 0.000000e+00 0
0.000000e+00 0.000000e+00 0
0.000000e+00 0.000000e+00 0
0.000000e+00 0.000000e+00 0
0.000000e+00 0.000000e+00 0
0.000000e+00 0.000000e+00 0
0.000000e+00 0.000000e+00 0
0.000000e+00 0.000000e+00 0
0.000000e+00 0.000000e+00 0
0.000000e+00 0.000000e+00 0
0.000000e+00 0.000000e+00 0
0.000000e+00 0.000000e+00 0
0.000000e+00 0.000000e+00 0
0.000000e+00 0.000000e+00 0
0.000000e+00 0.000000e+00 0
0.000000e+00 0.000000e+00 0
0.000000e+00 0.000000e+00 0
0.000000e+00 0.000000e+00 0
0.000000e+00 0.000000e+00 0
0.000000e+00 0.000000e+00 0
0.000000e+00 0.000000e+00 0
0.000000e+00 0.000000e+00 0
0.000000e+00 0.000000e+00 0
0.000000e+00 0.000000e+00 0
0.000000e+00 0.000000e+00 0
0.000000e+00 0.000000e+00 0
0.000000e+00 0.000000e+00 0
0.000000e+00 0.000000e+00 0
0.000000e+00 0.000000e+00 0
0.000000e+00 0.000000e+00 0
0.000000e+00 0.000000e+00 0
0.000000e+00 0.000000e+00 0
0.000000e+00 0.000000e+00 0
0.000000e+00 0.000000e+00 0
0.000000e+00 0.000000e+00 0
0.000000e+00 0.000000e+00 0
0.000000e+00 0.000000e+00 0
0.000000e+00 0.000000e+00 0
0.000000e+00 0.000000e+00 0
0.000000e+00 0.000000e+00 0
0.000000e+00 0.000000e+00 0
0.000000e+00 0.000000e+00 0
0.000000e+00 0.000000e+00 0
0.000000e+00 0.000000e+00 0
0.000000e+00 0.000000e+00 0
0.000000e+00 0.000000e+00 0
0.000000e+00 0.000000e+00 0
0.000000e+00 0.000000e+00 0
0.000000e+00 0.000000e+00 0
0.000000e+00 0.000000e+00 0
0.000000e+00 0.000000e+00 0
0.000000e+00 0.000000e+00 0
0.000000e+00 0.000000e+00 0
0.000000e+00 0.000000e+00 0
0.000000e+00 0.000000e+00 0
0.000000e+00 0.000000e+00 0
0.000000e+00 0.000000e+00 0
0.000000e+00 0.000000e+00 0
0.000000e+00 0.000000e+00 0
0.000000e+00 0.000000e+00 0
0.000000e+00 0.000000e+00 0
0.000000e+00 0.000000e+00 0
0.000000e+00 0.000000e+00 0
0.000000e+00 0.000000e+00 0
0.000000e+00 0.000000e+00 0
0.000000e+00 0.000000e+00 0
0.000000e+00 0.000000e+00 0
0.000000e+00 0.000000e+00 0
0.000000e+00 0.000000e+00 0
0.000000e+00 0.000000e+00 0
0.000000e+00 0.000000e+00 0
0.000000e+00 0.000000e+00 0
0.000000e+00 0.000000e+00 0
0.000000e+00 0.000000e+00 0
0.000000e+00 0.000000e+00 0
0.000000e+00 0.000000e+00 0
0.000000e+00 0.000000e+00 0
0.000000e+00 0.000000e+00 0
0.000000e+00 0.000000e+00 0
0.000000e+00 0.000000e+00 0
0.000000e+00 0.000000e+00 0
0.000000e+00 0.000000e+00 0
0.000000e+00 0.000000e+00 0
0.000000e+00 0.000000e+00 0
0.000000e+00 0.000000e+00 0
2.862132e+00 5.464785e-09 0
2.862132e+00 1.055630e-08 0
2.862132e+00 2.086379e-08 0
2.862132e+00 2.717539e-08 0
2.862132e+00 2.356272e-08 0
2.862132e+00 1.078014e-08 0
2.862132e+00 -3.432363e-09 0
2.862132e+00 -1.010526e-08 0
2.862132e+00 -5.838077e-09 0
2.862132e+00 5.116710e-09 0
2.862132e+00 1.417691e-08 0
2.862132e+00 1.452391e-08 0
2.862132e+00 6.311257e-09 0
2.862132e+00 -3.716051e-09 0
2.862132e+00 -8.336165e-09 0
2.862132e+00 -4.876131e-09 0
2.862132e+00 3.772512e-09 0
2.862132e+00 1.124702e-08 0
2.862132e+00 1.267562e-08 0
2.862132e+00 8.433836e-09 0
2.862132e+00 2.819428e-09 0
2.862132e+00 2.488889e-10 0
2.862132e+00 2.239846e-09 0
2.862132e+00 6.862271e-09 0
2.862132e+00 1.059008e-08 0
2.862132e+00 1.126243e-08 0
2.862132e+00 9.531315e-09 0
2.862132e+00 7.606853e-09 0
2.862132e+00 7.152905e-09 0
2.862132e+00 8.289009e-09 0
2.862132e+00 9.867417e-09 0
2.862132e+00 1.056996e-08 0
2.862132e+00 9.994038e-09 0
2.862132e+00 8.818671e-09 0
2.862132e+00 8.106772e-09 0
2.862132e+00 8.466026e-09 0
2.862132e+00 9.669916e-09 0
2.862132e+00 1.087408e-08 0
2.862132e+00 1.121163e-08 0
2.862132e+00 1.037974e-08 0
2.862132e+00 8.853940e-09 0
2.862132e+00 7.583968e-09 0
2.862132e+00 7.354868e-09 0
2.862132e+00 8.244269e-09 0
2.862132e+00 9.573282e-09 0
2.862132e+00 1.040423e-08 0
2.862132e+00 1.021224e-08 0
2.862132e+00 9.218622e-09 0
2.862132e+00 8.154473e-09 0
2.862132e+00 7.681240e-09 0
2.862132e+00 7.946836e-09 0
2.862132e+00 8.588754e-09 0
2.862132e+00 9.098692e-09 0
2.862132e+00 9.203043e-09 0
2.862132e+00 8.977663e-09 0
2.862132e+00 8.687097e-09 0
2.862132e+00 8.546644e-09 0
2.862132e+00 8.600667e-09 0
2.862132e+00 8.757982e-09 0
2.862132e+00 8.899184e-09 0
2.862132e+00 8.955929e-09 0
2.862132e+00 8.922536e-09 0
2.862132e+00 8.827344e-09 0
2.862132e+00 8.700491e-09 0
2.862132e+00 8.553491e-09 0
2.862132e+00 8.380421e-09 0
2.862132e+00 8.171462e-09 0
2.862132e+00 7.926809e-09 0
2.862132e+00 7.662687e-09 0
2.862132e+00 7.403563e-09 0
2.862132e+00 7.166655e-09 0
2.862132e+00 6.951357e-09 0
2.862132e+00 6.743282e-09 0
2.862132e+00 6.526507e-09 0
2.862132e+00 6.295189e-09 0
2.862132e+00 6.057576e-09 0
2.862132e+00 5.828649e-09 0
2.862132e+00 5.619961e-09 0
2.862132e+00 5.434797e-09 0
2.862132e+00 5.268269e-09 0
2.862132e+00 5.115845e-09 0
2.862132e+00 4.985938e-09 0
2.862132e+00 4.900900e-09 0
2.862132e+00 4.886107e-09 0
2.862132e+00 4.953474e-09 0
2.862132e+00 5.088118e-09 0
2.862132e+00 5.254832e-09 0
2.862132e+00 5.422232e-09 0
2.862132e+00 5.581950e-09 0
2.862132e+00 5.746755e-09 0
2.862132e+00 5.931794e-09 0
2.862132e+00 6.136823e-09 0
2.862132e+00 6.345129e-09 0
2.862132e+00 6.537726e-09 0
2.862132e+00 6.707860e-09 0
2.862132e+00 6.862762e-09 0
2.862132e+00 7.013100e-09 0
2.862132e+00 7.161521e-09 0
2.862132e+00 7.300319e-09 0
2.862132e+00 7.418642e-09 0
2.862132e+00 7.510741e-09 0
2.862132e+00 7.577591e-09 0
2.862132e+00 7.622606e-09 0
2.862132e+00 7.646459e-09 0
2.862132e+00 7.646366e-09 0
2.862132e+00 7.621280e-09 0
2.862132e+00 7.575264e-09 0
2.862132e+00 7.513461e-09 0
2.862132e+00 7.437313e-09 0
2.862132e+00 7.345319e-09 0
2.862132e+00 7.237576e-09 0
2.862132e+00 7.119897e-09 0
2.862132e+00 7.002419e-09 0
2.862132e+00 6.891978e-09 0
2.862132e+00 6.786886e-09 0
2.862132e+00 6.681321e-09 0
2.862132e+00 6.574607e-09 0
2.862132e+00 6.474837e-09 0
2.862132e+00 6.392778e-09 0
2.862132e+00 6.332537e-09 0
2.862132e+00 6.288861e-09 0
2.862132e+00 6.253474e-09 0
2.862132e+00 6.223432e-09 0
2.862132e+00 6.202711e-09 0
2.862132e+00 6.196609e-09 0
2.862132e+00 6.205870e-09 0
2.862132e+00 6.226107e-09 0
2.862132e+00 6.251883e-09 0
2.862132e+00 6.279762e-09 0
2.862132e+00 6.308304e-09 0
2.862132e+00 6.336292e-09 0
2.862132e+00 6.361461e-09 0
2.862132e+00 6.380971e-09 0
2.862132e+00 6.392225e-09 0
2.862132e+00 6.393061e-09 0
2.862132e+00 6.381418e-09 0
2.862132e+00 6.355458e-09 0
2.862132e+00 6.313994e-09 0
2.862132e+00 6.256874e-09 0
2.862132e+00 6.185657e-09 0
2.862132e+00 6.102782e-09 0
2.862132e+00 6.010377e-09 0
2.862132e+00 5.910494e-09 0
2.862132e+00 5.804358e-09 0
2.862132e+00 5.693451e-09 0
2.862132e+00 5.581461e-09 0
2.862132e+00 5.472147e-09 0
2.862132e+00 5.368423e-09 0
2.862132e+00 5.272958e-09 0
2.862132e+00 5.187408e-09 0
2.862132e+00 5.111271e-09 0
2.862132e+00 5.042760e-09 0
2.862132e+00 4.977877e-09 0
2.862132e+00 4.907262e-09 0
2.862132e+00 4.810241e-09 0
2.862132e+00 4.631247e-09 0
2.862132e+00 4.210607e-09 0
2.862132e+00 2.598312e-09 0
2.862132e+00 1.286419e-09 0
5.505987e+00 9.472379e-09 0
5.505987e+00 1.663601e-08 0
5.505987e+00 2.789991e-08 0
5.505987e+00 3.059002e-08 0
5.505987e+00 2.261484e-08 0
5.505987e+00 8.612568e-09 0
5.505987e+00 -2.468675e-09 0
5.505987e+00 -4.279889e-09 0
5.505987e+00 2.583974e-09 0
5.505987e+00 1.198514e-08 0
5.505987e+00 1.638528e-08 0
5.505987e+00 1.214519e-08 0
5.505987e+00 2.498574e-09 0
5.505987e+00 -5.578069e-09 0
5.505987e+00 -6.659282e-09 0
5.505987e+00 -6.252687e-10 0
5.505987e+00 7.754804e-09 0
5.505987e+00 1.267553e-08 0
5.505987e+00 1.148279e-08 0
5.505987e+00 6.326582e-09 0
5.505987e+00 1.909679e-09 0
5.505987e+00 1.517541e-09 0
5.505987e+00 4.961100e-09 0
5.505987e+00 9.344877e-09 0
5.505987e+00 1.165598e-08 0
5.505987e+00 1.108709e-08 0
5.505987e+00 9.140557e-09 0
5.505987e+00 7.896882e-09 0
5.505987e+00 8.304815e-09 0
5.505987e+00 9.779421e-09 0
5.505987e+00 1.101398e-08 0
5.505987e+00 1.113635e-08 0
5.505987e+00 1.028972e-08 0
5.505987e+00 9.325287e-09 0
5.505987e+00 9.056873e-09 0
5.505987e+00 9.711197e-09 0
5.505987e+00 1.086106e-08 0
5.505987e+00 1.175589e-08 0
5.505987e+00 1.180207e-08 0
5.505987e+00 1.093224e-08 0
5.505987e+00 9.664513e-09 0
5.505987e+00 8.793524e-09 0
5.505987e+00 8.873129e-09 0
5.505987e+00 9.830041e-09 0
5.505987e+00 1.100847e-08 0
5.505987e+00 1.163879e-08 0
5.505987e+00 1.137958e-08 0
5.505987e+00 1.051832e-08 0
5.505987e+00 9.695721e-09 0
5.505987e+00 9.408813e-09 0
5.505987e+00 9.698605e-09 0
5.505987e+00 1.022181e-08 0
5.505987e+00 1.057578e-08 0
5.505987e+00 1.058067e-08 0
5.505987e+00 1.032787e-08 0
5.505987e+00 1.003134e-08 0
5.505987e+00 9.851053e-09 0
5.505987e+00 9.817355e-09 0
5.505987e+00 9.863803e-09 0
5.505987e+00 9.901798e-09 0
5.505987e+00 9.872575e-09 0
5.505987e+00 9.759492e-09 0
5.505987e+00 9.576277e-09 0
5.505987e+00 9.344842e-09 0
5.505987e+00 9.080046e-09 0
5.505987e+00 8.786367e-09 0
5.505987e+00 8.463551e-09 0
5.505987e+00 8.117761e-09 0
5.505987e+00 7.766260e-09 0
5.505987e+00 7.428288e-09 0
5.505987e+00 7.113000e-09 0
5.505987e+00 6.816032e-09 0
5.505987e+00 6.523217e-09 0
5.505987e+00 6.220276e-09 0
5.505987e+00 5.900084e-09 0
5.505987e+00 5.562983e-09 0
5.505987e+00 5.213853e-09 0
5.505987e+00 4.857229e-09 0
5.505987e+00 4.495459e-09 0
5.505987e+00 4.137772e-09 0
5.505987e+00 3.806355e-09 0
5.505987e+00 3.536807e-09 0
5.505987e+00 3.372666e-09 0
5.505987e+00 3.347921e-09 0
5.505987e+00 3.470603e-09 0
5.505987e+00 3.716034e-09 0
5.505987e+00 4.035026e-09 0
5.505987e+00 4.379216e-09 0
5.505987e+00 4.725420e-09 0
5.505987e+00 5.077212e-09 0
5.505987e+00 5.446679e-09 0
5.505987e+00 5.833414e-09 0
5.505987e+00 6.218518e-09 0
5.505987e+00 6.577502e-09 0
5.505987e+00 6.898030e-09 0
5.505987e+00 7.185581e-09 0
5.505987e+00 7.453498e-09 0
5.505987e+00 7.708149e-09 0
5.505987e+00 7.942465e-09 0
5.505987e+00 8.141914e-09 0
5.505987e+00 8.295758e-09 0
5.505987e+00 8.403245e-09 0
5.505987e+00 8.470165e-09 0
5.505987e+00 8.501256e-09 0
5.505987e+00 8.497491e-09 0
5.505987e+00 8.459000e-09 0
5.505987e+00 8.388392e-09 0
5.505987e+00 8.291256e-09 0
5.505987e+00 8.172985e-09 0
5.505987e+00 8.035802e-09 0
5.505987e+00 7.881613e-09 0
5.505987e+00 7.717198e-09 0
5.505987e+00 7.553483e-09 0
5.505987e+00 7.399101e-09 0
5.505987e+00 7.255464e-09 0
5.505987e+00 7.118575e-09 0
5.505987e+00 6.986237e-09 0
5.505987e+00 6.863449e-09 0
5.505987e+00 6.759928e-09 0
5.505987e+00 6.681909e-09 0
5.505987e+00 6.626486e-09 0
5.505987e+00 6.584420e-09 0
5.505987e+00 6.548529e-09 0
5.505987e+00 6.518969e-09 0
5.505987e+00 6.500827e-09 0
5.505987e+00 6.497234e-09 0
5.505987e+00 6.505652e-09 0
5.505987e+00 6.519882e-09 0
5.505987e+00 6.534408e-09 0
5.505987e+00 6.546767e-09 0
5.505987e+00 6.556385e-09 0
5.505987e+00 6.562493e-09 0
5.505987e+00 6.563359e-09 0
5.505987e+00 6.556664e-09 0
5.505987e+00 6.540179e-09 0
5.505987e+00 6.512048e-09 0
5.505987e+00 6.470897e-09 0
5.505987e+00 6.416002e-09 0
5.505987e+00 6.347735e-09 0
5.505987e+00 6.267830e-09 0
5.505987e+00 6.178007e-09 0
5.505987e+00 6.080361e-09 0
5.505987e+00 5.976825e-09 0
5.505987e+00 5.868311e-09 0
5.505987e+00 5.757122e-09 0
5.505987e+00 5.646003e-09 0
5.505987e+00 5.537250e-09 0
5.505987e+00 5.433611e-09 0
5.505987e+00 5.337399e-09 0
5.505987e+00 5.248864e-09 0
5.505987e+00 5.165558e-09 0
5.505987e+00 5.083282e-09 0
5.505987e+00 4.993161e-09 0
5.505987e+00 4.878366e-09 0
5.505987e+00 4.705845e-09 0
5.505987e+00 4.407735e-09 0
5.505987e+00 3.843370e-09 0
5.505987e+00 2.772203e-09 0
5.505987e+00 2.073644e-09 0
7.935473e+00 1.186987e-08 0
7.935473e+00 2.029046e-08 0
7.935473e+00 3.092578e-08 0
7.935473e+00 2.903472e-08 0
7.935473e+00 1.726140e-08 0
7.935473e+00 3.667876e-09 0
7.935473e+00 -2.747512e-09 0
7.935473e+00 9.678987e-10 0
7.935473e+00 1.056854e-08 0
7.935473e+00 1.818140e-08 0
7.935473e+00 1.762701e-08 0
7.935473e+00 9.112309e-09 0
7.935473e+00 -1.206926e-09 0
7.935473e+00 -6.098353e-09 0
7.935473e+00 -2.789409e-09 0
7.935473e+00 5.500835e-09 0
7.935473e+00 1.256365e-08 0
7.935473e+00 1.379465e-08 0
7.935473e+00 9.310156e-09 0
7.935473e+00 3.441594e-09 0
7.935473e+00 9.510192e-10 0
7.935473e+00 3.255469e-09 0
7.935473e+00 8.039522e-09 0
7.935473e+00 1.168802e-08 0
7.935473e+00 1.220802e-08 0
7.935473e+00 1.040699e-08 0
7.935473e+00 8.634357e-09 0
7.935473e+00 8.588899e-09 0
7.935473e+00 1.014313e-08 0
7.935473e+00 1.187173e-08 0
7.935473e+00 1.246185e-08 0
7.935473e+00 1.170610e-08 0
7.935473e+00 1.042671e-08 0
7.935473e+00 9.665081e-09 0
7.935473e+00 9.918502e-09 0
7.935473e+00 1.092453e-08 0
7.935473e+00 1.196394e-08 0
7.935473e+00 1.235190e-08 0
7.935473e+00 1.181976e-08 0
7.935473e+00 1.064644e-08 0
7.935473e+00 9.501113e-09 0
7.935473e+00 9.051992e-09 0
7.935473e+00 9.540606e-09 0
7.935473e+00 1.060893e-08 0
7.935473e+00 1.154091e-08 0
7.935473e+00 1.176594e-08 0
7.935473e+00 1.124310e-08 0
7.935473e+00 1.043101e-08 0
7.935473e+00 9.894639e-09 0
7.935473e+00 9.896004e-09 0
7.935473e+00 1.028228e-08 0
7.935473e+00 1.069563e-08 0
7.935473e+00 1.087171e-08 0
7.935473e+00 1.078006e-08 0
7.935473e+00 1.055527e-08 0
7.935473e+00 1.034598e-08 0
7.935473e+00 1.022255e-08 0
7.935473e+00 1.017897e-08 0
7.935473e+00 1.017669e-08 0
7.935473e+00 1.017466e-08 0
7.935473e+00 1.013576e-08 0
7.935473e+00 1.003090e-08 0
7.935473e+00 9.846999e-09 0
7.935473e+00 9.590913e-09 0
7.935473e+00 9.281890e-09 0
7.935473e+00 8.937410e-09 0
7.935473e+00 8.567963e-09 0
7.935473e+00 8.182222e-09 0
7.935473e+00 7.788921e-09 0
7.935473e+00 7.395838e-09 0
7.935473e+00 7.007342e-09 0
7.935473e+00 6.621397e-09 0
7.935473e+00 6.231358e-09 0
7.935473e+00 5.829509e-09 0
7.935473e+00 5.407812e-09 0
7.935473e+00 4.955754e-09 0
7.935473e+00 4.459148e-09 0
7.935473e+00 3.905101e-09 0
7.935473e+00 3.293509e-09 0
7.935473e+00 2.646766e-09 0
7.935473e+00 2.015337e-09 0
7.935473e+00 1.480105e-09 0
7.935473e+00 1.127991e-09 0
7.935473e+00 1.009553e-09 0
7.935473e+00 1.125964e-09 0
7.935473e+00 1.438041e-09 0
7.935473e+00 1.873502e-09 0
7.935473e+00 2.360429e-09 0
7.935473e+00 2.861719e-09 0
7.935473e+00 3.368285e-09 0
7.935473e+00 3.883363e-09 0
7.935473e+00 4.407635e-09 0
7.935473e+00 4.928265e-09 0
7.935473e+00 5.423739e-09 0
7.935473e+00 5.877936e-09 0
7.935473e+00 6.289471e-09 0
7.935473e+00 6.668102e-09 0
7.935473e+00 7.022006e-09 0
7.935473e+00 7.347899e-09 0
7.935473e+00 7.632493e-09 0
7.935473e+00 7.862226e-09 0
7.935473e+00 8.031597e-09 0
7.935473e+00 8.144197e-09 0
7.935473e+00 8.207546e-09 0
7.935473e+00 8.226981e-09 0
7.935473e+00 8.204491e-09 0
7.935473e+00 8.142606e-09 0
7.935473e+00 8.046818e-09 0
7.935473e+00 7.923981e-09 0
7.935473e+00 7.780395e-09 0
7.935473e+00 7.621768e-09 0
7.935473e+00 7.454643e-09 0
7.935473e+00 7.287829e-09 0
7.935473e+00 7.130822e-09 0
7.935473e+00 6.989354e-09 0
7.935473e+00 6.863234e-09 0
7.935473e+00 6.749637e-09 0
7.935473e+00 6.648777e-09 0
7.935473e+00 6.565797e-09 0
7.935473e+00 6.506320e-09 0
7.935473e+00 6.470275e-09 0
7.935473e+00 6.450772e-09 0
7.935473e+00 6.438922e-09 0
7.935473e+00 6.429730e-09 0
7.935473e+00 6.423742e-09 0
7.935473e+00 6.423447e-09 0
7.935473e+00 6.428810e-09 0
7.935473e+00 6.435712e-09 0
7.935473e+00 6.438470e-09 0
7.935473e+00 6.433124e-09 0
7.935473e+00 6.418481e-09 0
7.935473e+00 6.394899e-09 0
7.935473e+00 6.362453e-09 0
7.935473e+00 6.320329e-09 0
7.935473e+00 6.267278e-09 0
7.935473e+00 6.202361e-09 0
7.935473e+00 6.125350e-09 0
7.935473e+00 6.036796e-09 0
7.935473e+00 5.938284e-09 0
7.935473e+00 5.831427e-09 0
7.935473e+00 5.717737e-09 0
7.935473e+00 5.599494e-09 0
7.935473e+00 5.478262e-09 0
7.935473e+00 5.355912e-09 0
7.935473e+00 5.235204e-09 0
7.935473e+00 5.117714e-09 0
7.935473e+00 5.004967e-09 0
7.935473e+00 4.899055e-09 0
7.935473e+00 4.800942e-09 0
7.935473e+00 4.709240e-09 0
7.935473e+00 4.621381e-09 0
7.935473e+00 4.531382e-09 0
7.935473e+00 4.428569e-09 0
7.935473e+00 4.295569e-09 0
7.935473e+00 4.105303e-09 0
7.935473e+00 3.816248e-09 0
7.935473e+00 3.390027e-09 0
7.935473e+00 2.771336e-09 0
7.935473e+00 2.403141e-09 0
1.015440e+01 1.206854e-08 0
1.015440e+01 2.018040e-08 0
1.015440e+01 2.799282e-08 0
1.015440e+01 2.121932e-08 0
1.015440e+01 7.174713e-09 0
1.015440e+01 -3.468446e-09 0
1.015440e+01 -3.399259e-09 0
1.015440e+01 6.286047e-09 0
1.015440e+01 1.768710e-08 0
1.015440e+01 2.193289e-08 0
1.015440e+01 1.570652e-08 0
1.015440e+01 3.506205e-09 0
1.015440e+01 -5.883170e-09 0
1.015440e+01 -6.090508e-09 0
1.015440e+01 2.150339e-09 0
1.015440e+01 1.220533e-08 0
1.015440e+01 1.702591e-08 0
1.015440e+01 1.413556e-08 0
1.015440e+01 6.863126e-09 0
1.015440e+01 1.400181e-09 0
1.015440e+01 1.625643e-09 0
1.015440e+01 6.530922e-09 0
1.015440e+01 1.188729e-08 0
1.015440e+01 1.400747e-08 0
1.015440e+01 1.245712e-08 0
1.015440e+01 9.707368e-09 0
1.015440e+01 8.591323e-09 0
1.015440e+01 1.000410e-08 0
1.015440e+01 1.260706e-08 0
1.015440e+01 1.433427e-08 0
1.015440e+01 1.412508e-08 0
1.015440e+01 1.250586e-08 0
1.015440e+01 1.087507e-08 0
1.015440e+01 1.035028e-08 0
1.015440e+01 1.109442e-08 0
1.015440e+01 1.241934e-08 0
1.015440e+01 1.336259e-08 0
1.015440e+01 1.328151e-08 0
1.015440e+01 1.218195e-08 0
1.015440e+01 1.068281e-08 0
1.015440e+01 9.643319e-09 0
1.015440e+01 9.629347e-09 0
1.015440e+01 1.053728e-08 0
1.015440e+01 1.166510e-08 0
1.015440e+01 1.222021e-08 0
1.015440e+01 1.188845e-08 0
1.015440e+01 1.101334e-08 0
1.015440e+01 1.025742e-08 0
1.015440e+01 1.006368e-08 0
1.015440e+01 1.037719e-08 0
1.015440e+01 1.080604e-08 0
1.015440e+01 1.100387e-08 0
1.015440e+01 1.091165e-08 0
1.015440e+01 1.069915e-08 0
1.015440e+01 1.054562e-08 0
1.015440e+01 1.049444e-08 0
1.015440e+01 1.047834e-08 0
1.015440e+01 1.042964e-08 0
1.015440e+01 1.034384e-08 0
1.015440e+01 1.025381e-08 0
1.015440e+01 1.017190e-08 0
1.015440e+01 1.006825e-08 0
1.015440e+01 9.895868e-09 0
1.015440e+01 9.627047e-09 0
1.015440e+01 9.267956e-09 0
1.015440e+01 8.848630e-09 0
1.015440e+01 8.404624e-09 0
1.015440e+01 7.959580e-09 0
1.015440e+01 7.519532e-09 0
1.015440e+01 7.078337e-09 0
1.015440e+01 6.624372e-09 0
1.015440e+01 6.148015e-09 0
1.015440e+01 5.646582e-09 0
1.015440e+01 5.118706e-09 0