<?xml version="1.0"?>
<VTKFile type="StructuredGrid">
<StructuredGrid WholeExtent="0 158 0 30 0 0 ">
<Piece Extent="0 158 0 30 0 0 ">
<Points>
<DataArray type="Float64" format="ascii" NumberOfComponents="3">
0.000000e+00 0.000000e+00 0.000000e+00
3.164557e-02 0.000000e+00 0.000000e+00
6.329114e-02 0.000000e+00 0.000000e+00
9.493671e-02 0.000000e+00 0.000000e+00
1.265823e-01 0.000000e+00 0.000000e+00
1.582278e-01 0.000000e+00 0.000000e+00
1.898734e-01 0.000000e+00 0.000000e+00
2.215190e-01 0.000000e+00 0.000000e+00
2.531646e-01 0.000000e+00 0.000000e+00
2.848101e-01 0.000000e+00 0.000000e+00
3.164557e-01 0.000000e+00 0.000000e+00
3.481013e-01 0.000000e+00 0.000000e+00
3.797468e-01 0.000000e+00 0.000000e+00
4.113924e-01 0.000000e+00 0.000000e+00
4.430380e-01 0.000000e+00 0.000000e+00
4.746835e-01 0.000000e+00 0.000000e+00
5.063291e-01 0.000000e+00 0.000000e+00
5.379747e-01 0.000000e+00 0.000000e+00
5.696203e-01 0.000000e+00 0.000000e+00
6.012658e-01 0.000000e+00 0.000000e+00
6.329114e-01 0.000000e+00 0.000000e+00
6.645570e-01 0.000000e+00 0.000000e+00
6.962025e-01 0.000000e+00 0.000000e+00
7.278481e-01 0.000000e+00 0.000000e+00
7.594937e-01 0.000000e+00 0.000000e+00
7.911392e-01 0.000000e+00 0.000000e+00
8.227848e-01 0.000000e+00 0.000000e+00
8.544304e-01 0.000000e+00 0.000000e+00
8.860759e-01 0.000000e+00 0.000000e+00
9.177215e-01 0.000000e+00 0.000000e+00
9.493671e-01 0.000000e+00 0.000000e+00
9.810127e-01 0.000000e+00 0.000000e+00
1.012658e+00 0.000000e+00 0.000000e+00
1.044304e+00 0.000000e+00 0.000000e+00
1.075949e+00 0.000000e+00 0.000000e+00
1.107595e+00 0.000000e+00 0.000000e+00
1.139241e+00 0.000000e+00 0.000000e+00
1.170886e+00 0.000000e+00 0.000000e+00
1.202532e+00 0.000000e+00 0.000000e+00
1.234177e+00 0.000000e+00 0.000000e+00
1.265823e+00 0.000000e+00 0.000000e+00
1.297468e+00 0.000000e+00 0.000000e+00
1.329114e+00 0.000000e+00 0.000000e+00
1.360759e+00 0.000000e+00 0.000000e+00
1.392405e+00 0.000000e+00 0.000000e+00
1.424051e+00 0.000000e+00 0.000000e+00
1.455696e+00 0.000000e+00 0.000000e+00
1.487342e+00 0.000000e+00 0.000000e+00
1.518987e+00 0.000000e+00 0.000000e+00
1.550633e+00 0.000000e+00 0.000000e+00
1.582278e+00 0.000000e+00 0.000000e+00
1.613924e+00 0.000000e+00 0.000000e+00
1.645570e+00 0.000000e+00 0.000000e+00
1.677215e+00 0.000000e+00 0.000000e+00
1.708861e+00 0.000000e+00 0.000000e+00
1.740506e+00 0.000000e+00 0.000000e+00
1.772152e+00 0.000000e+00 0.000000e+00
1.803797e+00 0.000000e+00 0.000000e+00
1.835443e+00 0.000000e+00 0.000000e+00
1.867089e+00 0.000000e+00 0.000000e+00
1.898734e+00 0.000000e+00 0.000000e+00
1.930380e+00 0.000000e+00 0.000000e+00
1.962025e+00 0.000000e+00 0.000000e+00
1.993671e+00 0.000000e+00 0.000000e+00
2.025316e+00 0.000000e+00 0.000000e+00
2.056962e+00 0.000000e+00 0.000000e+00
2.088608e+00 0.000000e+00 0.000000e+00
2.120253e+00 0.000000e+00 0.000000e+00
2.151899e+00 0.000000e+00 0.000000e+00
2.183544e+00 0.000000e+00 0.000000e+00
2.215190e+00 0.000000e+00 0.000000e+00
2.246835e+00 0.000000e+00 0.000000e+00
2.278481e+00 0.000000e+00 0.000000e+00
2.310127e+00 0.000000e+00 0.000000e+00
2.341772e+00 0.000000e+00 0.000000e+00
2.373418e+00 0.000000e+00 0.000000e+00
2.405063e+00 0.000000e+00 0.000000e+00
2.436709e+00 0.000000e+00 0.000000e+00
2.468354e+00 0.000000e+00 0.000000e+00
2.500000e+00 0.000000e+00 0.000000e+00
2.531646e+00 0.000000e+00 0.000000e+00
2.563291e+00 0.000000e+00 0.000000e+00
2.594937e+00 0.000000e+00 0.000000e+00
2.626582e+00 0.000000e+00 0.000000e+00
2.658228e+00 0.000000e+00 0.000000e+00
2.689873e+00 0.000000e+00 0.000000e+00
2.721519e+00 0.000000e+00 0.000000e+00
2.753165e+00 0.000000e+00 0.000000e+00
2.784810e+00 0.000000e+00 0.000000e+00
2.816456e+00 0.000000e+00 0.000000e+00
2.848101e+00 0.000000e+00 0.000000e+00
2.879747e+00 0.000000e+00 0.000000e+00
2.911392e+00 0.000000e+00 0.000000e+00
2.943038e+00 0.000000e+00 0.000000e+00
2.974684e+00 0.000000e+00 0.000000e+00
3.006329e+00 0.000000e+00 0.000000e+00
3.037975e+00 0.000000e+00 0.000000e+00
3.069620e+00 0.000000e+00 0.000000e+00
3.101266e+00 0.000000e+00 0.000000e+00
3.132911e+00 0.000000e+00 0.000000e+00
3.164557e+00 0.000000e+00 0.000000e+00
3.196203e+00 0.000000e+00 0.000000e+00
3.227848e+00 0.000000e+00 0.000000e+00
3.259494e+00 0.000000e+00 0.000000e+00
3.291139e+00 0.000000e+00 0.000000e+00
3.322785e+00 0.000000e+00 0.000000e+00
3.354430e+00 0.000000e+00 0.000000e+00
3.386076e+00 0.000000e+00 0.000000e+00
3.417722e+00 0.000000e+00 0.000000e+00
3.449367e+00 0.000000e+00 0.000000e+00
3.481013e+00 0.000000e+00 0.000000e+00
3.512658e+00 0.000000e+00 0.000000e+00
3.544304e+00 0.000000e+00 0.000000e+00
3.575949e+00 0.000000e+00 0.000000e+00
3.607595e+00 0.000000e+00 0.000000e+00
3.639241e+00 0.000000e+00 0.000000e+00
3.670886e+00 0.000000e+00 0.000000e+00
3.702532e+00 0.000000e+00 0.000000e+00
3.734177e+00 0.000000e+00 0.000000e+00
3.765823e+00 0.000000e+00 0.000000e+00
3.797468e+00 0.000000e+00 0.000000e+00
3.829114e+00 0.000000e+00 0.000000e+00
3.860759e+00 0.000000e+00 0.000000e+00
3.892405e+00 0.000000e+00 0.000000e+00
3.924051e+00 0.000000e+00 0.000000e+00
3.955696e+00 0.000000e+00 0.000000e+00
3.987342e+00 0.000000e+00 0.000000e+00
4.018987e+00 0.000000e+00 0.000000e+00
4.050633e+00 0.000000e+00 0.000000e+00
4.082278e+00 0.000000e+00 0.000000e+00
4.113924e+00 0.000000e+00 0.000000e+00
4.145570e+00 0.000000e+00 0.000000e+00
4.177215e+00 0.000000e+00 0.000000e+00
4.208861e+00 0.000000e+00 0.000000e+00
4.240506e+00 0.000000e+00 0.000000e+00
4.272152e+00 0.000000e+00 0.000000e+00
4.303797e+00 0.000000e+00 0.000000e+00
4.335443e+00 0.000000e+00 0.000000e+00
4.367089e+00 0.000000e+00 0.000000e+00
4.398734e+00 0.000000e+00 0.000000e+00
4.430380e+00 0.000000e+00 0.000000e+00
4.462025e+00 0.000000e+00 0.000000e+00
4.493671e+00 0.000000e+00 0.000000e+00
4.525316e+00 0.000000e+00 0.000000e+00
4.556962e+00 0.000000e+00 0.000000e+00
4.588608e+00 0.000000e+00 0.000000e+00
4.620253e+00 0.000000e+00 0.000000e+00
4.651899e+00 0.000000e+00 0.000000e+00
4.683544e+00 0.000000e+00 0.000000e+00
4.715190e+00 0.000000e+00 0.000000e+00
4.746835e+00 0.000000e+00 0.000000e+00
4.778481e+00 0.000000e+00 0.000000e+00
4.810127e+00 0.000000e+00 0.000000e+00
4.841772e+00 0.000000e+00 0.000000e+00
4.873418e+00 0.000000e+00 0.000000e+00
4.905063e+00 0.000000e+00 0.000000e+00
4.936709e+00 0.000000e+00 0.000000e+00
4.968354e+00 0.000000e+00 0.000000e+00
5.000000e+00 0.000000e+00 0.000000e+00
0.000000e+00 3.333333e-02 0.000000e+00
3.164557e-02 3.333333e-02 0.000000e+00
6.329114e-02 3.333333e-02 0.000000e+00
9.493671e-02 3.333333e-02 0.000000e+00
1.265823e-01 3.333333e-02 0.000000e+00
1.582278e-01 3.333333e-02 0.000000e+00
1.898734e-01 3.333333e-02 0.000000e+00
2.215190e-01 3.333333e-02 0.000000e+00
2.531646e-01 3.333333e-02 0.000000e+00
2.848101e-01 3.333333e-02 0.000000e+00
3.164557e-01 3.333333e-02 0.000000e+00
3.481013e-01 3.333333e-02 0.000000e+00
3.797468e-01 3.333333e-02 0.000000e+00
4.113924e-01 3.333333e-02 0.000000e+00
4.430380e-01 3.333333e-02 0.000000e+00
4.746835e-01 3.333333e-02 0.000000e+00
5.063291e-01 3.333333e-02 0.000000e+00
5.379747e-01 3.333333e-02 0.000000e+00
5.696203e-01 3.333333e-02 0.000000e+00
6.012658e-01 3.333333e-02 0.000000e+00
6.329114e-01 3.333333e-02 0.000000e+00
6.645570e-01 3.333333e-02 0.000000e+00
6.962025e-01 3.333333e-02 0.000000e+00
7.278481e-01 3.333333e-02 0.000000e+00
7.594937e-01 3.333333e-02 0.000000e+00
7.911392e-01 3.333333e-02 0.000000e+00
8.227848e-01 3.333333e-02 0.000000e+00
8.544304e-01 3.333333e-02 0.000000e+00
8.860759e-01 3.333333e-02 0.000000e+00
9.177215e-01 3.333333e-02 0.000000e+00
9.493671e-01 3.333333e-02 0.000000e+00
9.810127e-01 3.333333e-02 0.000000e+00
1.012658e+00 3.333333e-02 0.000000e+00
1.044304e+00 3.333333e-02 0.000000e+00
1.075949e+00 3.333333e-02 0.000000e+00
1.107595e+00 3.333333e-02 0.000000e+00
1.139241e+00 3.333333e-02 0.000000e+00
1.170886e+00 3.333333e-02 0.000000e+00
1.202532e+00 3.333333e-02 0.000000e+00
1.234177e+00 3.333333e-02 0.000000e+00
1.265823e+00 3.333333e-02 0.000000e+00
1.297468e+00 3.333333e-02 0.000000e+00
1.329114e+00 3.333333e-02 0.000000e+00
1.360759e+00 3.333333e-02 0.000000e+00
1.392405e+00 3.333333e-02 0.000000e+00
1.424051e+00 3.333333e-02 0.000000e+00
1.455696e+00 3.333333e-02 0.000000e+00
1.487342e+00 3.333333e-02 0.000000e+00
1.518987e+00 3.333333e-02 0.000000e+00
1.550633e+00 3.333333e-02 0.000000e+00
1.582278e+00 3.333333e-02 0.000000e+00
1.613924e+00 3.333333e-02 0.000000e+00
1.645570e+00 3.333333e-02 0.000000e+00
1.677215e+00 3.333333e-02 0.000000e+00
1.708861e+00 3.333333e-02 0.000000e+00
1.740506e+00 3.333333e-02 0.000000e+00
1.772152e+00 3.333333e-02 0.000000e+00
1.803797e+00 3.333333e-02 0.000000e+00
1.835443e+00 3.333333e-02 0.000000e+00
1.867089e+00 3.333333e-02 0.000000e+00
1.898734e+00 3.333333e-02 0.000000e+00
1.930380e+00 3.333333e-02 0.000000e+00
1.962025e+00 3.333333e-02 0.000000e+00
1.993671e+00 3.333333e-02 0.000000e+00
2.025316e+00 3.333333e-02 0.000000e+00
2.056962e+00 3.333333e-02 0.000000e+00
2.088608e+00 3.333333e-02 0.000000e+00
2.120253e+00 3.333333e-02 0.000000e+00
2.151899e+00 3.333333e-02 0.000000e+00
2.183544e+00 3.333333e-02 0.000000e+00
2.215190e+00 3.333333e-02 0.000000e+00
2.246835e+00 3.333333e-02 0.000000e+00
2.278481e+00 3.333333e-02 0.000000e+00
2.310127e+00 3.333333e-02 0.000000e+00
2.341772e+00 3.333333e-02 0.000000e+00
2.373418e+00 3.333333e-02 0.000000e+00
2.405063e+00 3.333333e-02 0.000000e+00
2.436709e+00 3.333333e-02 0.000000e+00
2.468354e+00 3.333333e-02 0.000000e+00
2.500000e+00 3.333333e-02 0.000000e+00
2.531646e+00 3.333333e-02 0.000000e+00
2.563291e+00 3.333333e-02 0.000000e+00
2.594937e+00 3.333333e-02 0.000000e+00
2.626582e+00 3.333333e-02 0.000000e+00
2.658228e+00 3.333333e-02 0.000000e+00
2.689873e+00 3.333333e-02 0.000000e+00
2.721519e+00 3.333333e-02 0.000000e+00
2.753165e+00 3.333333e-02 0.000000e+00
2.784810e+00 3.333333e-02 0.000000e+00
2.816456e+00 3.333333e-02 0.000000e+00
2.848101e+00 3.333333e-02 0.000000e+00
2.879747e+00 3.333333e-02 0.000000e+00
[...]
<PointData>
<DataArray Name="Velocity" type="Float64" format="ascii" NumberOfComponents="3">
0.000000e+00 0.000000e+00 0
0.000000e+00 0.000000e+00 0
0.000000e+00 0.000000e+00 0
0.000000e+00 0.000000e+00 0
0.000000e+00 0.000000e+00 0
0.000000e+00 0.000000e+00 0
0.000000e+00 0.000000e+00 0
0.000000e+00 0.000000e+00 0
0.000000e+00 0.000000e+00 0
0.000000e+00 0.000000e+00 0
0.000000e+00 0.000000e+00 0
0.000000e+00 0.000000e+00 0
0.000000e+00 0.000000e+00 0
0.000000e+00 0.000000e+00 0
0.000000e+00 0.000000e+00 0
0.000000e+00 0.000000e+00 0
0.000000e+00 0.000000e+00 0
0.000000e+00 0.000000e+00 0
0.000000e+00 0.000000e+00 0
4.466998e-17 0.000000e+00 0
0.000000e+00 0.000000e+00 0
0.000000e+00 0.000000e+00 0
0.000000e+00 0.000000e+00 0
4.466990e-17 0.000000e+00 0
0.000000e+00 0.000000e+00 0
0.000000e+00 0.000000e+00 0
0.000000e+00 0.000000e+00 0
4.466987e-17 0.000000e+00 0
0.000000e+00 0.000000e+00 0
0.000000e+00 0.000000e+00 0
0.000000e+00 0.000000e+00 0
4.466979e-17 0.000000e+00 0
0.000000e+00 0.000000e+00 0
0.000000e+00 0.000000e+00 0
0.000000e+00 0.000000e+00 0
0.000000e+00 0.000000e+00 0
0.000000e+00 0.000000e+00 0
0.000000e+00 0.000000e+00 0
-2.168292e-17 0.000000e+00 0
0.000000e+00 0.000000e+00 0
0.000000e+00 0.000000e+00 0
0.000000e+00 0.000000e+00 0
0.000000e+00 0.000000e+00 0
0.000000e+00 0.000000e+00 0
0.000000e+00 0.000000e+00 0
0.000000e+00 0.000000e+00 0
-2.168312e-17 0.000000e+00 0
0.000000e+00 0.000000e+00 0
0.000000e+00 0.000000e+00 0
0.000000e+00 0.000000e+00 0
0.000000e+00 0.000000e+00 0
0.000000e+00 0.000000e+00 0
0.000000e+00 0.000000e+00 0
0.000000e+00 0.000000e+00 0
-2.168330e-17 0.000000e+00 0
0.000000e+00 0.000000e+00 0
0.000000e+00 0.000000e+00 0
0.000000e+00 0.000000e+00 0
0.000000e+00 0.000000e+00 0
0.000000e+00 0.000000e+00 0
0.000000e+00 0.000000e+00 0
0.000000e+00 0.000000e+00 0
-2.168348e-17 0.000000e+00 0
0.000000e+00 0.000000e+00 0
0.000000e+00 0.000000e+00 0
0.000000e+00 0.000000e+00 0
0.000000e+00 0.000000e+00 0
0.000000e+00 0.000000e+00 0
0.000000e+00 0.000000e+00 0
0.000000e+00 0.000000e+00 0
0.000000e+00 0.000000e+00 0
0.000000e+00 0.000000e+00 0
0.000000e+00 0.000000e+00 0
0.000000e+00 0.000000e+00 0
0.000000e+00 0.000000e+00 0
0.000000e+00 0.000000e+00 0
0.000000e+00 0.000000e+00 0
0.000000e+00 0.000000e+00 0
0.000000e+00 0.000000e+00 0
0.000000e+00 0.000000e+00 0
0.000000e+00 0.000000e+00 0
0.000000e+00 0.000000e+00 0
0.000000e+00 0.000000e+00 0
0.000000e+00 0.000000e+00 0
0.000000e+00 0.000000e+00 0
0.000000e+00 0.000000e+00 0
0.000000e+00 0.000000e+00 0
0.000000e+00 0.000000e+00 0
0.000000e+00 0.000000e+00 0
0.000000e+00 0.000000e+00 0
0.000000e+00 0.000000e+00 0
0.000000e+00 0.000000e+00 0
0.000000e+00 0.000000e+00 0
0.000000e+00 0.000000e+00 0
0.000000e+00 0.000000e+00 0
0.000000e+00 0.000000e+00 0
0.000000e+00 0.000000e+00 0
0.000000e+00 0.000000e+00 0
0.000000e+00 0.000000e+00 0
0.000000e+00 0.000000e+00 0
0.000000e+00 0.000000e+00 0
0.000000e+00 0.000000e+00 0
0.000000e+00 0.000000e+00 0
0.000000e+00 0.000000e+00 0
0.000000e+00 0.000000e+00 0
0.000000e+00 0.000000e+00 0
0.000000e+00 0.000000e+00 0
0.000000e+00 0.000000e+00 0
0.000000e+00 0.000000e+00 0
0.000000e+00 0.000000e+00 0
0.000000e+00 0.000000e+00 0
0.000000e+00 0.000000e+00 0
0.000000e+00 0.000000e+00 0
0.000000e+00 0.000000e+00 0
0.000000e+00 0.000000e+00 0
0.000000e+00 0.000000e+00 0
0.000000e+00 0.000000e+00 0
0.000000e+00 0.000000e+00 0
0.000000e+00 0.000000e+00 0
0.000000e+00 0.000000e+00 0
0.000000e+00 0.000000e+00 0
0.000000e+00 0.000000e+00 0
0.000000e+00 0.000000e+00 0
0.000000e+00 0.000000e+00 0
0.000000e+00 0.000000e+00 0
0.000000e+00 0.000000e+00 0
0.000000e+00 0.000000e+00 0
0.000000e+00 0.000000e+00 0
0.000000e+00 0.000000e+00 0
0.000000e+00 0.000000e+00 0
0.000000e+00 0.000000e+00 0
0.000000e+00 0.000000e+00 0
0.000000e+00 0.000000e+00 0
0.000000e+00 0.000000e+00 0
0.000000e+00 0.000000e+00 0
0.000000e+00 0.000000e+00 0
0.000000e+00 0.000000e+00 0
0.000000e+00 0.000000e+00 0
0.000000e+00 0.000000e+00 0
0.000000e+00 0.000000e+00 0
0.000000e+00 0.000000e+00 0
0.000000e+00 0.000000e+00 0
0.000000e+00 0.000000e+00 0
0.000000e+00 0.000000e+00 0
0.000000e+00 0.000000e+00 0
0.000000e+00 0.000000e+00 0
0.000000e+00 0.000000e+00 0
0.000000e+00 0.000000e+00 0
0.000000e+00 0.000000e+00 0
0.000000e+00 0.000000e+00 0
0.000000e+00 0.000000e+00 0
0.000000e+00 0.000000e+00 0
0.000000e+00 0.000000e+00 0
0.000000e+00 0.000000e+00 0
0.000000e+00 0.000000e+00 0
0.000000e+00 0.000000e+00 0
0.000000e+00 0.000000e+00 0
0.000000e+00 0.000000e+00 0
0.000000e+00 0.000000e+00 0
3.064613e+00 2.897752e-09 0
3.064613e+00 2.338448e-09 0
3.064613e+00 -1.446781e-09 0
3.064613e+00 -4.775333e-09 0
3.064613e+00 2.170240e-10 0
3.064613e+00 1.222313e-08 0
3.064613e+00 2.221335e-08 0
3.064613e+00 2.253340e-08 0
3.064613e+00 1.377047e-08 0
3.064613e+00 3.193913e-09 0
3.064613e+00 -1.093300e-09 0
3.064613e+00 3.665189e-09 0
3.064613e+00 1.312540e-08 0
3.064613e+00 1.952489e-08 0
3.064613e+00 1.806857e-08 0
3.064613e+00 1.063591e-08 0
3.064613e+00 3.108745e-09 0
3.064613e+00 3.236433e-10 0
3.064613e+00 3.150483e-09 0
3.064613e+00 8.669299e-09 0
3.064613e+00 1.257390e-08 0
3.064613e+00 1.242461e-08 0
3.064613e+00 9.083453e-09 0
3.064613e+00 5.286582e-09 0
3.064613e+00 3.488697e-09 0
3.064613e+00 4.606468e-09 0
3.064613e+00 7.703163e-09 0
3.064613e+00 1.077132e-08 0
3.064613e+00 1.201654e-08 0
3.064613e+00 1.090290e-08 0
3.064613e+00 8.394384e-09 0
3.064613e+00 6.259121e-09 0
3.064613e+00 5.887519e-09 0
3.064613e+00 7.398060e-09 0
3.064613e+00 9.622907e-09 0
3.064613e+00 1.098369e-08 0
3.064613e+00 1.062471e-08 0
3.064613e+00 8.947855e-09 0
3.064613e+00 7.177630e-09 0
3.064613e+00 6.388169e-09 0
3.064613e+00 6.800785e-09 0
3.064613e+00 7.819123e-09 0
3.064613e+00 8.618116e-09 0
3.064613e+00 8.736260e-09 0
3.064613e+00 8.254940e-09 0
3.064613e+00 7.560277e-09 0
3.064613e+00 6.994040e-09 0
3.064613e+00 6.684627e-09 0
3.064613e+00 6.594424e-09 0
3.064613e+00 6.629731e-09 0
3.064613e+00 6.695696e-09 0
3.064613e+00 6.708452e-09 0
3.064613e+00 6.618829e-09 0
3.064613e+00 6.447891e-09 0
3.064613e+00 6.286575e-09 0
3.064613e+00 6.235518e-09 0
3.064613e+00 6.329365e-09 0
3.064613e+00 6.517197e-09 0
3.064613e+00 6.717323e-09 0
3.064613e+00 6.889689e-09 0
3.064613e+00 7.053476e-09 0
3.064613e+00 7.237778e-09 0
3.064613e+00 7.425872e-09 0
3.064613e+00 7.555820e-09 0
3.064613e+00 7.575862e-09 0
3.064613e+00 7.496908e-09 0
3.064613e+00 7.386504e-09 0
3.064613e+00 7.311423e-09 0
3.064613e+00 7.285606e-09 0
3.064613e+00 7.265587e-09 0
3.064613e+00 7.192300e-09 0
3.064613e+00 7.037406e-09 0
3.064613e+00 6.817945e-09 0
3.064613e+00 6.580539e-09 0
3.064613e+00 6.375121e-09 0
3.064613e+00 6.234532e-09 0
3.064613e+00 6.161333e-09 0
3.064613e+00 6.124710e-09 0
3.064613e+00 6.076174e-09 0
3.064613e+00 5.979192e-09 0
3.064613e+00 5.836843e-09 0
3.064613e+00 5.694071e-09 0
3.064613e+00 5.603642e-09 0
3.064613e+00 5.585140e-09 0
3.064613e+00 5.613494e-09 0
3.064613e+00 5.643152e-09 0
3.064613e+00 5.645517e-09 0
3.064613e+00 5.628441e-09 0
3.064613e+00 5.624511e-09 0
3.064613e+00 5.662951e-09 0
3.064613e+00 5.750303e-09 0
3.064613e+00 5.871495e-09 0
3.064613e+00 6.004208e-09 0
3.064613e+00 6.132716e-09 0
3.064613e+00 6.253098e-09 0
3.064613e+00 6.370129e-09 0
3.064613e+00 6.489951e-09 0
3.064613e+00 6.613124e-09 0
3.064613e+00 6.731902e-09 0
3.064613e+00 6.833061e-09 0
3.064613e+00 6.904370e-09 0
3.064613e+00 6.940075e-09 0
3.064613e+00 6.941363e-09 0
3.064613e+00 6.912914e-09 0
3.064613e+00 6.859790e-09 0
3.064613e+00 6.786315e-09 0
3.064613e+00 6.695980e-09 0
3.064613e+00 6.591554e-09 0
3.064613e+00 6.475498e-09 0
3.064613e+00 6.350961e-09 0
3.064613e+00 6.222750e-09 0
3.064613e+00 6.097110e-09 0
3.064613e+00 5.980267e-09 0
3.064613e+00 5.876824e-09 0
3.064613e+00 5.789590e-09 0
3.064613e+00 5.720820e-09 0
3.064613e+00 5.672750e-09 0
3.064613e+00 5.646568e-09 0
3.064613e+00 5.641220e-09 0
3.064613e+00 5.653740e-09 0
3.064613e+00 5.680949e-09 0
3.064613e+00 5.720702e-09 0
3.064613e+00 5.771566e-09 0
3.064613e+00 5.831789e-09 0
3.064613e+00 5.898483e-09 0
3.064613e+00 5.967582e-09 0
3.064613e+00 6.034409e-09 0
3.064613e+00 6.094788e-09 0
3.064613e+00 6.145493e-09 0
3.064613e+00 6.184376e-09 0
3.064613e+00 6.210243e-09 0
3.064613e+00 6.222086e-09 0
3.064613e+00 6.219198e-09 0
3.064613e+00 6.201179e-09 0
3.064613e+00 6.167683e-09 0
3.064613e+00 6.119248e-09 0
3.064613e+00 6.057060e-09 0
3.064613e+00 5.983008e-09 0
3.064613e+00 5.899882e-09 0
3.064613e+00 5.810529e-09 0
3.064613e+00 5.717550e-09 0
3.064613e+00 5.623337e-09 0
3.064613e+00 5.529870e-09 0
3.064613e+00 5.438828e-09 0
3.064613e+00 5.351557e-09 0
3.064613e+00 5.268926e-09 0
3.064613e+00 5.192254e-09 0
3.064613e+00 5.121861e-09 0
3.064613e+00 5.057606e-09 0
3.064613e+00 4.999292e-09 0
3.064613e+00 4.945386e-09 0
3.064613e+00 4.892896e-09 0
3.064613e+00 4.836642e-09 0
3.064613e+00 4.767455e-09 0
3.064613e+00 4.665682e-09 0
3.064613e+00 4.478127e-09 0
3.064613e+00 4.060104e-09 0
3.064613e+00 2.446191e-09 0
3.064613e+00 1.125184e-09 0
5.908731e+00 -1.583795e-09 0
5.908731e+00 -4.164039e-09 0
5.908731e+00 -9.500908e-09 0
5.908731e+00 -1.080442e-08 0
5.908731e+00 -3.314345e-09 0
5.908731e+00 9.244679e-09 0
5.908731e+00 1.802175e-08 0
5.908731e+00 1.715231e-08 0
5.908731e+00 8.582525e-09 0
5.908731e+00 1.755423e-10 0
5.908731e+00 -1.296972e-09 0
5.908731e+00 4.621741e-09 0
5.908731e+00 1.271405e-08 0
5.908731e+00 1.654936e-08 0
5.908731e+00 1.375736e-08 0
5.908731e+00 7.292127e-09 0
5.908731e+00 2.335053e-09 0
5.908731e+00 2.138418e-09 0
5.908731e+00 6.095029e-09 0
5.908731e+00 1.087108e-08 0
5.908731e+00 1.319037e-08 0
5.908731e+00 1.200850e-08 0
5.908731e+00 8.749943e-09 0
5.908731e+00 5.905537e-09 0
5.908731e+00 5.287295e-09 0
5.908731e+00 7.147172e-09 0
5.908731e+00 1.025610e-08 0
5.908731e+00 1.275659e-08 0
5.908731e+00 1.327368e-08 0
5.908731e+00 1.171101e-08 0
5.908731e+00 9.278930e-09 0
5.908731e+00 7.688019e-09 0
5.908731e+00 7.992598e-09 0
5.908731e+00 9.879171e-09 0
5.908731e+00 1.193402e-08 0
5.908731e+00 1.270476e-08 0
5.908731e+00 1.173845e-08 0
5.908731e+00 9.805829e-09 0
5.908731e+00 8.205805e-09 0
5.908731e+00 7.780360e-09 0
5.908731e+00 8.426213e-09 0
5.908731e+00 9.376378e-09 0
5.908731e+00 9.875987e-09 0
5.908731e+00 9.663731e-09 0
5.908731e+00 8.970934e-09 0
5.908731e+00 8.198820e-09 0
5.908731e+00 7.624000e-09 0
5.908731e+00 7.324605e-09 0
5.908731e+00 7.259279e-09 0
5.908731e+00 7.341400e-09 0
5.908731e+00 7.455405e-09 0
5.908731e+00 7.475480e-09 0
5.908731e+00 7.331438e-09 0
5.908731e+00 7.072837e-09 0
5.908731e+00 6.848333e-09 0
5.908731e+00 6.794921e-09 0
5.908731e+00 6.932048e-09 0
5.908731e+00 7.159132e-09 0
5.908731e+00 7.355286e-09 0
5.908731e+00 7.481177e-09 0
5.908731e+00 7.586628e-09 0
5.908731e+00 7.730189e-09 0
5.908731e+00 7.903064e-09 0
5.908731e+00 8.033766e-09 0
5.908731e+00 8.061748e-09 0
5.908731e+00 7.996723e-09 0
5.908731e+00 7.904132e-09 0
5.908731e+00 7.839110e-09 0
5.908731e+00 7.796053e-09 0
5.908731e+00 7.721265e-09 0
5.908731e+00 7.566426e-09 0
5.908731e+00 7.326162e-09 0
5.908731e+00 7.034793e-09 0
5.908731e+00 6.738303e-09 0
5.908731e+00 6.471831e-09 0
5.908731e+00 6.251979e-09 0
5.908731e+00 6.075181e-09 0
5.908731e+00 5.918449e-09 0
5.908731e+00 5.748732e-09 0
5.908731e+00 5.547748e-09 0
5.908731e+00 5.333990e-09 0
5.908731e+00 5.154305e-09 0
5.908731e+00 5.050287e-09 0
5.908731e+00 5.026642e-09 0
5.908731e+00 5.049266e-09 0
5.908731e+00 5.076868e-09 0
5.908731e+00 5.095871e-09 0
5.908731e+00 5.127541e-09 0
5.908731e+00 5.205778e-09 0
5.908731e+00 5.349061e-09 0
5.908731e+00 5.549556e-09 0
5.908731e+00 5.782866e-09 0
5.908731e+00 6.025301e-09 0
5.908731e+00 6.264757e-09 0
5.908731e+00 6.500950e-09 0
5.908731e+00 6.738718e-09 0
5.908731e+00 6.979892e-09 0
5.908731e+00 7.217856e-09 0
5.908731e+00 7.437511e-09 0
5.908731e+00 7.621178e-09 0
5.908731e+00 7.756549e-09 0
5.908731e+00 7.840449e-09 0
5.908731e+00 7.876475e-09 0
5.908731e+00 7.870100e-09 0
5.908731e+00 7.825589e-09 0
5.908731e+00 7.746184e-09 0
5.908731e+00 7.635734e-09 0
5.908731e+00 7.499219e-09 0
5.908731e+00 7.342202e-09 0
5.908731e+00 7.171006e-09 0
5.908731e+00 6.993625e-09 0
5.908731e+00 6.819316e-09 0
5.908731e+00 6.656128e-09 0
5.908731e+00 6.508992e-09 0
5.908731e+00 6.380732e-09 0
5.908731e+00 6.274211e-09 0
5.908731e+00 6.192782e-09 0
5.908731e+00 6.138571e-09 0
5.908731e+00 6.110575e-09 0
5.908731e+00 6.104956e-09 0
5.908731e+00 6.117418e-09 0
5.908731e+00 6.145203e-09 0
5.908731e+00 6.187068e-09 0
5.908731e+00 6.241515e-09 0
5.908731e+00 6.305373e-09 0
5.908731e+00 6.374011e-09 0
5.908731e+00 6.442561e-09 0
5.908731e+00 6.506914e-09 0
5.908731e+00 6.563714e-09 0
5.908731e+00 6.610425e-09 0
5.908731e+00 6.645032e-09 0
5.908731e+00 6.666112e-09 0
5.908731e+00 6.672864e-09 0
5.908731e+00 6.664281e-09 0
5.908731e+00 6.639495e-09 0
5.908731e+00 6.598025e-09 0
5.908731e+00 6.539875e-09 0
5.908731e+00 6.466641e-09 0
5.908731e+00 6.380705e-09 0
5.908731e+00 6.284567e-09 0
5.908731e+00 6.180772e-09 0
5.908731e+00 6.071337e-09 0
5.908731e+00 5.957886e-09 0
5.908731e+00 5.842201e-09 0
5.908731e+00 5.725789e-09 0
5.908731e+00 5.610553e-09 0
5.908731e+00 5.497598e-09 0
5.908731e+00 5.387386e-09 0
5.908731e+00 5.280151e-09 0
5.908731e+00 5.174630e-09 0
5.908731e+00 5.068339e-09 0
5.908731e+00 4.956519e-09 0
5.908731e+00 4.830859e-09 0
5.908731e+00 4.675944e-09 0
5.908731e+00 4.460936e-09 0
5.908731e+00 4.123329e-09 0
5.908731e+00 3.532929e-09 0
5.908731e+00 2.461210e-09 0
5.908731e+00 1.770020e-09 0
8.534066e+00 -6.342301e-09 0
8.534066e+00 -1.132026e-08 0
8.534066e+00 -1.786579e-08 0
8.534066e+00 -1.589723e-08 0
8.534066e+00 -5.414735e-09 0
8.534066e+00 6.927160e-09 0
8.534066e+00 1.263305e-08 0
8.534066e+00 8.861836e-09 0
8.534066e+00 4.140871e-10 0
8.534066e+00 -4.918428e-09 0
8.534066e+00 -2.976263e-09 0
8.534066e+00 4.149524e-09 0
8.534066e+00 1.062523e-08 0
8.534066e+00 1.178591e-08 0
8.534066e+00 7.695221e-09 0
8.534066e+00 2.571118e-09 0
8.534066e+00 7.530319e-10 0
8.534066e+00 3.365431e-09 0
8.534066e+00 8.199335e-09 0
8.534066e+00 1.196657e-08 0
8.534066e+00 1.266575e-08 0
8.534066e+00 1.058399e-08 0
8.534066e+00 7.687016e-09 0
8.534066e+00 6.013902e-09 0
8.534066e+00 6.521287e-09 0
8.534066e+00 8.841898e-09 0
8.534066e+00 1.165479e-08 0
8.534066e+00 1.342354e-08 0
8.534066e+00 1.323175e-08 0
8.534066e+00 1.134846e-08 0
8.534066e+00 9.123780e-09 0
8.534066e+00 8.135189e-09 0
8.534066e+00 9.086083e-09 0
8.534066e+00 1.127904e-08 0
8.534066e+00 1.312929e-08 0
8.534066e+00 1.335112e-08 0
8.534066e+00 1.187685e-08 0
8.534066e+00 9.795877e-09 0
8.534066e+00 8.432971e-09 0
8.534066e+00 8.378311e-09 0
8.534066e+00 9.220917e-09 0
8.534066e+00 1.005717e-08 0
8.534066e+00 1.022548e-08 0
8.534066e+00 9.666802e-09 0
8.534066e+00 8.758614e-09 0
8.534066e+00 7.922177e-09 0
8.534066e+00 7.372151e-09 0
8.534066e+00 7.119694e-09 0
8.534066e+00 7.086723e-09 0
8.534066e+00 7.171084e-09 0
8.534066e+00 7.250700e-09 0
8.534066e+00 7.209490e-09 0
8.534066e+00 7.011735e-09 0
8.534066e+00 6.749276e-09 0
8.534066e+00 6.584563e-09 0
8.534066e+00 6.621056e-09 0
8.534066e+00 6.820345e-09 0
8.534066e+00 7.047260e-09 0
8.534066e+00 7.197881e-09 0
8.534066e+00 7.282938e-09 0
8.534066e+00 7.389909e-09 0
8.534066e+00 7.573187e-09 0
8.534066e+00 7.788243e-09 0
8.534066e+00 7.933792e-09 0
8.534066e+00 7.950956e-09 0
8.534066e+00 7.875146e-09 0
8.534066e+00 7.793107e-09 0
8.534066e+00 7.753928e-09 0
8.534066e+00 7.725842e-09 0
8.534066e+00 7.632948e-09 0
8.534066e+00 7.424964e-09 0
8.534066e+00 7.114374e-09 0
8.534066e+00 6.757242e-09 0
8.534066e+00 6.410117e-09 0
8.534066e+00 6.104367e-09 0
8.534066e+00 5.845515e-09 0
8.534066e+00 5.620941e-09 0
8.534066e+00 5.405843e-09 0
8.534066e+00 5.176430e-09 0
8.534066e+00 4.931321e-09 0
8.534066e+00 4.702586e-09 0
8.534066e+00 4.540820e-09 0
8.534066e+00 4.477787e-09 0
8.534066e+00 4.499435e-09 0
8.534066e+00 4.558049e-09 0
8.534066e+00 4.612763e-09 0
8.534066e+00 4.661674e-09 0
8.534066e+00 4.737705e-09 0
8.534066e+00 4.875998e-09 0
8.534066e+00 5.084985e-09 0
8.534066e+00 5.343552e-09 0
8.534066e+00 5.619675e-09 0
8.534066e+00 5.890765e-09 0
8.534066e+00 6.151168e-09 0
8.534066e+00 6.406603e-09 0
8.534066e+00 6.663807e-09 0
8.534066e+00 6.922283e-09 0
8.534066e+00 7.171140e-09 0
8.534066e+00 7.392039e-09 0
8.534066e+00 7.566734e-09 0
8.534066e+00 7.684568e-09 0
8.534066e+00 7.745148e-09 0
8.534066e+00 7.754912e-09 0
8.534066e+00 7.720836e-09 0
8.534066e+00 7.646785e-09 0
8.534066e+00 7.534762e-09 0
8.534066e+00 7.387914e-09 0
8.534066e+00 7.211713e-09 0
8.534066e+00 7.013558e-09 0
8.534066e+00 6.802543e-09 0
8.534066e+00 6.589137e-09 0
8.534066e+00 6.383589e-09 0
8.534066e+00 6.193816e-09 0
8.534066e+00 6.024627e-09 0
8.534066e+00 5.878773e-09 0
8.534066e+00 5.758987e-09 0
8.534066e+00 5.668820e-09 0
8.534066e+00 5.610736e-09 0
8.534066e+00 5.583635e-09 0
8.534066e+00 5.582936e-09 0
8.534066e+00 5.603299e-09 0
8.534066e+00 5.641229e-09 0
8.534066e+00 5.695104e-09 0
8.534066e+00 5.763039e-09 0
8.534066e+00 5.841411e-09 0
8.534066e+00 5.925115e-09 0
8.534066e+00 6.009119e-09 0
8.534066e+00 6.089286e-09 0
8.534066e+00 6.162200e-09 0
8.534066e+00 6.224899e-09 0
8.534066e+00 6.274787e-09 0
8.534066e+00 6.310169e-09 0
8.534066e+00 6.329951e-09 0
8.534066e+00 6.333078e-09 0
8.534066e+00 6.318463e-09 0
8.534066e+00 6.284825e-09 0
8.534066e+00 6.232107e-09 0
8.534066e+00 6.161721e-09 0
8.534066e+00 6.075820e-09 0
8.534066e+00 5.977048e-09 0
8.534066e+00 5.867654e-09 0
8.534066e+00 5.749269e-09 0
8.534066e+00 5.623743e-09 0
8.534066e+00 5.493118e-09 0
8.534066e+00 5.359543e-09 0
8.534066e+00 5.225264e-09 0
8.534066e+00 5.091533e-09 0
8.534066e+00 4.959156e-09 0
8.534066e+00 4.827906e-09 0
8.534066e+00 4.696252e-09 0
8.534066e+00 4.561325e-09 0
8.534066e+00 4.417762e-09 0
8.534066e+00 4.256157e-09 0
8.534066e+00 4.061167e-09 0
8.534066e+00 3.808708e-09 0
8.534066e+00 3.463008e-09 0
8.534066e+00 2.993529e-09 0
8.534066e+00 2.363366e-09 0
8.534066e+00 2.001280e-09 0
1.094229e+01 -9.857447e-09 0
1.094229e+01 -1.645726e-08 0
1.094229e+01 -2.260460e-08 0
1.094229e+01 -1.645442e-08 0
1.094229e+01 -3.811954e-09 0
1.094229e+01 6.220284e-09 0
1.094229e+01 6.993869e-09 0
1.094229e+01 -1.448566e-10 0
1.094229e+01 -7.781693e-09 0
1.094229e+01 -9.216226e-09 0
1.094229e+01 -3.813818e-09 0
1.094229e+01 3.480888e-09 0
1.094229e+01 7.014002e-09 0
1.094229e+01 4.955594e-09 0
1.094229e+01 2.343571e-10 0
1.094229e+01 -2.301638e-09 0
1.094229e+01 -1.852815e-10 0
1.094229e+01 5.096880e-09 0
1.094229e+01 1.012826e-08 0
1.094229e+01 1.233480e-08 0
1.094229e+01 1.137065e-08 0
1.094229e+01 8.868883e-09 0
1.094229e+01 6.913784e-09 0
1.094229e+01 6.674732e-09 0
1.094229e+01 8.199390e-09 0
1.094229e+01 1.069034e-08 0
1.094229e+01 1.295741e-08 0
1.094229e+01 1.389394e-08 0
1.094229e+01 1.303033e-08 0
1.094229e+01 1.094050e-08 0
1.094229e+01 9.051324e-09 0
1.094229e+01 8.739939e-09 0
1.094229e+01 1.029495e-08 0
1.094229e+01 1.262056e-08 0
1.094229e+01 1.402962e-08 0
1.094229e+01 1.352611e-08 0
1.094229e+01 1.151943e-08 0
1.094229e+01 9.401760e-09 0
1.094229e+01 8.413368e-09 0
1.094229e+01 8.777443e-09 0
1.094229e+01 9.740994e-09 0
1.094229e+01 1.032474e-08 0
1.094229e+01 1.005301e-08 0
1.094229e+01 9.118273e-09 0
1.094229e+01 8.028812e-09 0
1.094229e+01 7.179170e-09 0
1.094229e+01 6.688972e-09 0
1.094229e+01 6.498780e-09 0
1.094229e+01 6.502597e-09 0
1.094229e+01 6.583180e-09 0
1.094229e+01 6.604393e-09 0
1.094229e+01 6.461030e-09 0
1.094229e+01 6.170860e-09 0
1.094229e+01 5.893936e-09 0
1.094229e+01 5.819113e-09 0
1.094229e+01 6.005367e-09 0
1.094229e+01 6.330377e-09 0
1.094229e+01 6.601791e-09 0
1.094229e+01 6.725831e-09 0
1.094229e+01 6.772512e-09 0
1.094229e+01 6.883336e-09 0
1.094229e+01 7.120684e-09 0
1.094229e+01 7.406844e-09 0
1.094229e+01 7.602416e-09 0
1.094229e+01 7.635998e-09 0
1.094229e+01 7.556939e-09 0
1.094229e+01 7.470165e-09 0
1.094229e+01 7.430278e-09 0
1.094229e+01 7.398266e-09 0
1.094229e+01 7.290007e-09 0
1.094229e+01 7.057064e-09 0
1.094229e+01 6.721668e-09 0
1.094229e+01 6.348361e-09 0