<?xml version="1.0"?>
<VTKFile type="StructuredGrid">
<StructuredGrid WholeExtent="0 158 0 30 0 0 ">
<Piece Extent="0 158 0 30 0 0 ">
<Points>
<DataArray type="Float64" format="ascii" NumberOfComponents="3">
0.000000e+00 0.000000e+00 0.000000e+00
3.164557e-02 0.000000e+00 0.000000e+00
6.329114e-02 0.000000e+00 0.000000e+00
9.493671e-02 0.000000e+00 0.000000e+00
1.265823e-01 0.000000e+00 0.000000e+00
1.582278e-01 0.000000e+00 0.000000e+00
1.898734e-01 0.000000e+00 0.000000e+00
2.215190e-01 0.000000e+00 0.000000e+00
2.531646e-01 0.000000e+00 0.000000e+00
2.848101e-01 0.000000e+00 0.000000e+00
3.164557e-01 0.000000e+00 0.000000e+00
3.481013e-01 0.000000e+00 0.000000e+00
3.797468e-01 0.000000e+00 0.000000e+00
4.113924e-01 0.000000e+00 0.000000e+00
4.430380e-01 0.000000e+00 0.000000e+00
4.746835e-01 0.000000e+00 0.000000e+00
5.063291e-01 0.000000e+00 0.000000e+00
5.379747e-01 0.000000e+00 0.000000e+00
5.696203e-01 0.000000e+00 0.000000e+00
6.012658e-01 0.000000e+00 0.000000e+00
6.329114e-01 0.000000e+00 0.000000e+00
6.645570e-01 0.000000e+00 0.000000e+00
6.962025e-01 0.000000e+00 0.000000e+00
7.278481e-01 0.000000e+00 0.000000e+00
7.594937e-01 0.000000e+00 0.000000e+00
7.911392e-01 0.000000e+00 0.000000e+00
8.227848e-01 0.000000e+00 0.000000e+00
8.544304e-01 0.000000e+00 0.000000e+00
8.860759e-01 0.000000e+00 0.000000e+00
9.177215e-01 0.000000e+00 0.000000e+00
9.493671e-01 0.000000e+00 0.000000e+00
9.810127e-01 0.000000e+00 0.000000e+00
1.012658e+00 0.000000e+00 0.000000e+00
1.044304e+00 0.000000e+00 0.000000e+00
1.075949e+00 0.000000e+00 0.000000e+00
1.107595e+00 0.000000e+00 0.000000e+00
1.139241e+00 0.000000e+00 0.000000e+00
1.170886e+00 0.000000e+00 0.000000e+00
1.202532e+00 0.000000e+00 0.000000e+00
1.234177e+00 0.000000e+00 0.000000e+00
1.265823e+00 0.000000e+00 0.000000e+00
1.297468e+00 0.000000e+00 0.000000e+00
1.329114e+00 0.000000e+00 0.000000e+00
1.360759e+00 0.000000e+00 0.000000e+00
1.392405e+00 0.000000e+00 0.000000e+00
1.424051e+00 0.000000e+00 0.000000e+00
1.455696e+00 0.000000e+00 0.000000e+00
1.487342e+00 0.000000e+00 0.000000e+00
1.518987e+00 0.000000e+00 0.000000e+00
1.550633e+00 0.000000e+00 0.000000e+00
1.582278e+00 0.000000e+00 0.000000e+00
1.613924e+00 0.000000e+00 0.000000e+00
1.645570e+00 0.000000e+00 0.000000e+00
1.677215e+00 0.000000e+00 0.000000e+00
1.708861e+00 0.000000e+00 0.000000e+00
1.740506e+00 0.000000e+00 0.000000e+00
1.772152e+00 0.000000e+00 0.000000e+00
1.803797e+00 0.000000e+00 0.000000e+00
1.835443e+00 0.000000e+00 0.000000e+00
1.867089e+00 0.000000e+00 0.000000e+00
1.898734e+00 0.000000e+00 0.000000e+00
1.930380e+00 0.000000e+00 0.000000e+00
1.962025e+00 0.000000e+00 0.000000e+00
1.993671e+00 0.000000e+00 0.000000e+00
2.025316e+00 0.000000e+00 0.000000e+00
2.056962e+00 0.000000e+00 0.000000e+00
2.088608e+00 0.000000e+00 0.000000e+00
2.120253e+00 0.000000e+00 0.000000e+00
2.151899e+00 0.000000e+00 0.000000e+00
2.183544e+00 0.000000e+00 0.000000e+00
2.215190e+00 0.000000e+00 0.000000e+00
2.246835e+00 0.000000e+00 0.000000e+00
2.278481e+00 0.000000e+00 0.000000e+00
2.310127e+00 0.000000e+00 0.000000e+00
2.341772e+00 0.000000e+00 0.000000e+00
2.373418e+00 0.000000e+00 0.000000e+00
2.405063e+00 0.000000e+00 0.000000e+00
2.436709e+00 0.000000e+00 0.000000e+00
2.468354e+00 0.000000e+00 0.000000e+00
2.500000e+00 0.000000e+00 0.000000e+00
2.531646e+00 0.000000e+00 0.000000e+00
2.563291e+00 0.000000e+00 0.000000e+00
2.594937e+00 0.000000e+00 0.000000e+00
2.626582e+00 0.000000e+00 0.000000e+00
2.658228e+00 0.000000e+00 0.000000e+00
2.689873e+00 0.000000e+00 0.000000e+00
2.721519e+00 0.000000e+00 0.000000e+00
2.753165e+00 0.000000e+00 0.000000e+00
2.784810e+00 0.000000e+00 0.000000e+00
2.816456e+00 0.000000e+00 0.000000e+00
2.848101e+00 0.000000e+00 0.000000e+00
2.879747e+00 0.000000e+00 0.000000e+00
2.911392e+00 0.000000e+00 0.000000e+00
2.943038e+00 0.000000e+00 0.000000e+00
2.974684e+00 0.000000e+00 0.000000e+00
3.006329e+00 0.000000e+00 0.000000e+00
3.037975e+00 0.000000e+00 0.000000e+00
3.069620e+00 0.000000e+00 0.000000e+00
3.101266e+00 0.000000e+00 0.000000e+00
3.132911e+00 0.000000e+00 0.000000e+00
3.164557e+00 0.000000e+00 0.000000e+00
3.196203e+00 0.000000e+00 0.000000e+00
3.227848e+00 0.000000e+00 0.000000e+00
3.259494e+00 0.000000e+00 0.000000e+00
3.291139e+00 0.000000e+00 0.000000e+00
3.322785e+00 0.000000e+00 0.000000e+00
3.354430e+00 0.000000e+00 0.000000e+00
3.386076e+00 0.000000e+00 0.000000e+00
3.417722e+00 0.000000e+00 0.000000e+00
3.449367e+00 0.000000e+00 0.000000e+00
3.481013e+00 0.000000e+00 0.000000e+00
3.512658e+00 0.000000e+00 0.000000e+00
3.544304e+00 0.000000e+00 0.000000e+00
3.575949e+00 0.000000e+00 0.000000e+00
3.607595e+00 0.000000e+00 0.000000e+00
3.639241e+00 0.000000e+00 0.000000e+00
3.670886e+00 0.000000e+00 0.000000e+00
3.702532e+00 0.000000e+00 0.000000e+00
3.734177e+00 0.000000e+00 0.000000e+00
3.765823e+00 0.000000e+00 0.000000e+00
3.797468e+00 0.000000e+00 0.000000e+00
3.829114e+00 0.000000e+00 0.000000e+00
3.860759e+00 0.000000e+00 0.000000e+00
3.892405e+00 0.000000e+00 0.000000e+00
3.924051e+00 0.000000e+00 0.000000e+00
3.955696e+00 0.000000e+00 0.000000e+00
3.987342e+00 0.000000e+00 0.000000e+00
4.018987e+00 0.000000e+00 0.000000e+00
4.050633e+00 0.000000e+00 0.000000e+00
4.082278e+00 0.000000e+00 0.000000e+00
4.113924e+00 0.000000e+00 0.000000e+00
4.145570e+00 0.000000e+00 0.000000e+00
4.177215e+00 0.000000e+00 0.000000e+00
4.208861e+00 0.000000e+00 0.000000e+00
4.240506e+00 0.000000e+00 0.000000e+00
4.272152e+00 0.000000e+00 0.000000e+00
4.303797e+00 0.000000e+00 0.000000e+00
4.335443e+00 0.000000e+00 0.000000e+00
4.367089e+00 0.000000e+00 0.000000e+00
4.398734e+00 0.000000e+00 0.000000e+00
4.430380e+00 0.000000e+00 0.000000e+00
4.462025e+00 0.000000e+00 0.000000e+00
4.493671e+00 0.000000e+00 0.000000e+00
4.525316e+00 0.000000e+00 0.000000e+00
4.556962e+00 0.000000e+00 0.000000e+00
4.588608e+00 0.000000e+00 0.000000e+00
4.620253e+00 0.000000e+00 0.000000e+00
4.651899e+00 0.000000e+00 0.000000e+00
4.683544e+00 0.000000e+00 0.000000e+00
4.715190e+00 0.000000e+00 0.000000e+00
4.746835e+00 0.000000e+00 0.000000e+00
4.778481e+00 0.000000e+00 0.000000e+00
4.810127e+00 0.000000e+00 0.000000e+00
4.841772e+00 0.000000e+00 0.000000e+00
4.873418e+00 0.000000e+00 0.000000e+00
4.905063e+00 0.000000e+00 0.000000e+00
4.936709e+00 0.000000e+00 0.000000e+00
4.968354e+00 0.000000e+00 0.000000e+00
5.000000e+00 0.000000e+00 0.000000e+00
0.000000e+00 3.333333e-02 0.000000e+00
3.164557e-02 3.333333e-02 0.000000e+00
6.329114e-02 3.333333e-02 0.000000e+00
9.493671e-02 3.333333e-02 0.000000e+00
1.265823e-01 3.333333e-02 0.000000e+00
1.582278e-01 3.333333e-02 0.000000e+00
1.898734e-01 3.333333e-02 0.000000e+00
2.215190e-01 3.333333e-02 0.000000e+00
2.531646e-01 3.333333e-02 0.000000e+00
2.848101e-01 3.333333e-02 0.000000e+00
3.164557e-01 3.333333e-02 0.000000e+00
3.481013e-01 3.333333e-02 0.000000e+00
3.797468e-01 3.333333e-02 0.000000e+00
4.113924e-01 3.333333e-02 0.000000e+00
4.430380e-01 3.333333e-02 0.000000e+00
4.746835e-01 3.333333e-02 0.000000e+00
5.063291e-01 3.333333e-02 0.000000e+00
5.379747e-01 3.333333e-02 0.000000e+00
5.696203e-01 3.333333e-02 0.000000e+00
6.012658e-01 3.333333e-02 0.000000e+00
6.329114e-01 3.333333e-02 0.000000e+00
6.645570e-01 3.333333e-02 0.000000e+00
6.962025e-01 3.333333e-02 0.000000e+00
7.278481e-01 3.333333e-02 0.000000e+00
7.594937e-01 3.333333e-02 0.000000e+00
7.911392e-01 3.333333e-02 0.000000e+00
8.227848e-01 3.333333e-02 0.000000e+00
8.544304e-01 3.333333e-02 0.000000e+00
8.860759e-01 3.333333e-02 0.000000e+00
9.177215e-01 3.333333e-02 0.000000e+00
9.493671e-01 3.333333e-02 0.000000e+00
9.810127e-01 3.333333e-02 0.000000e+00
1.012658e+00 3.333333e-02 0.000000e+00
1.044304e+00 3.333333e-02 0.000000e+00
1.075949e+00 3.333333e-02 0.000000e+00
1.107595e+00 3.333333e-02 0.000000e+00
1.139241e+00 3.333333e-02 0.000000e+00
1.170886e+00 3.333333e-02 0.000000e+00
1.202532e+00 3.333333e-02 0.000000e+00
1.234177e+00 3.333333e-02 0.000000e+00
1.265823e+00 3.333333e-02 0.000000e+00
1.297468e+00 3.333333e-02 0.000000e+00
1.329114e+00 3.333333e-02 0.000000e+00
1.360759e+00 3.333333e-02 0.000000e+00
1.392405e+00 3.333333e-02 0.000000e+00
1.424051e+00 3.333333e-02 0.000000e+00
1.455696e+00 3.333333e-02 0.000000e+00
1.487342e+00 3.333333e-02 0.000000e+00
1.518987e+00 3.333333e-02 0.000000e+00
1.550633e+00 3.333333e-02 0.000000e+00
1.582278e+00 3.333333e-02 0.000000e+00
1.613924e+00 3.333333e-02 0.000000e+00
1.645570e+00 3.333333e-02 0.000000e+00
1.677215e+00 3.333333e-02 0.000000e+00
1.708861e+00 3.333333e-02 0.000000e+00
1.740506e+00 3.333333e-02 0.000000e+00
1.772152e+00 3.333333e-02 0.000000e+00
1.803797e+00 3.333333e-02 0.000000e+00
1.835443e+00 3.333333e-02 0.000000e+00
1.867089e+00 3.333333e-02 0.000000e+00
1.898734e+00 3.333333e-02 0.000000e+00
1.930380e+00 3.333333e-02 0.000000e+00
1.962025e+00 3.333333e-02 0.000000e+00
1.993671e+00 3.333333e-02 0.000000e+00
2.025316e+00 3.333333e-02 0.000000e+00
2.056962e+00 3.333333e-02 0.000000e+00
2.088608e+00 3.333333e-02 0.000000e+00
2.120253e+00 3.333333e-02 0.000000e+00
2.151899e+00 3.333333e-02 0.000000e+00
2.183544e+00 3.333333e-02 0.000000e+00
2.215190e+00 3.333333e-02 0.000000e+00
2.246835e+00 3.333333e-02 0.000000e+00
2.278481e+00 3.333333e-02 0.000000e+00
2.310127e+00 3.333333e-02 0.000000e+00
2.341772e+00 3.333333e-02 0.000000e+00
2.373418e+00 3.333333e-02 0.000000e+00
2.405063e+00 3.333333e-02 0.000000e+00
2.436709e+00 3.333333e-02 0.000000e+00
2.468354e+00 3.333333e-02 0.000000e+00
2.500000e+00 3.333333e-02 0.000000e+00
2.531646e+00 3.333333e-02 0.000000e+00
2.563291e+00 3.333333e-02 0.000000e+00
2.594937e+00 3.333333e-02 0.000000e+00
2.626582e+00 3.333333e-02 0.000000e+00
2.658228e+00 3.333333e-02 0.000000e+00
2.689873e+00 3.333333e-02 0.000000e+00
2.721519e+00 3.333333e-02 0.000000e+00
2.753165e+00 3.333333e-02 0.000000e+00
2.784810e+00 3.333333e-02 0.000000e+00
2.816456e+00 3.333333e-02 0.000000e+00
2.848101e+00 3.333333e-02 0.000000e+00
2.879747e+00 3.333333e-02 0.000000e+00
[...]
<PointData>
<DataArray Name="Velocity" type="Float64" format="ascii" NumberOfComponents="3">
0.000000e+00 0.000000e+00 0
0.000000e+00 0.000000e+00 0
0.000000e+00 0.000000e+00 0
0.000000e+00 0.000000e+00 0
0.000000e+00 0.000000e+00 0
0.000000e+00 0.000000e+00 0
0.000000e+00 0.000000e+00 0
0.000000e+00 0.000000e+00 0
0.000000e+00 0.000000e+00 0
0.000000e+00 0.000000e+00 0
0.000000e+00 0.000000e+00 0
0.000000e+00 0.000000e+00 0
0.000000e+00 0.000000e+00 0
0.000000e+00 0.000000e+00 0
0.000000e+00 0.000000e+00 0
0.000000e+00 0.000000e+00 0
0.000000e+00 0.000000e+00 0
0.000000e+00 0.000000e+00 0
0.000000e+00 0.000000e+00 0
1.339372e-17 0.000000e+00 0
0.000000e+00 0.000000e+00 0
0.000000e+00 0.000000e+00 0
0.000000e+00 0.000000e+00 0
1.339374e-17 0.000000e+00 0
0.000000e+00 0.000000e+00 0
0.000000e+00 0.000000e+00 0
0.000000e+00 0.000000e+00 0
1.339363e-17 0.000000e+00 0
0.000000e+00 0.000000e+00 0
0.000000e+00 0.000000e+00 0
0.000000e+00 0.000000e+00 0
1.339361e-17 0.000000e+00 0
0.000000e+00 0.000000e+00 0
0.000000e+00 0.000000e+00 0
0.000000e+00 0.000000e+00 0
0.000000e+00 0.000000e+00 0
0.000000e+00 0.000000e+00 0
0.000000e+00 0.000000e+00 0
2.678694e-17 0.000000e+00 0
0.000000e+00 0.000000e+00 0
0.000000e+00 0.000000e+00 0
0.000000e+00 0.000000e+00 0
0.000000e+00 0.000000e+00 0
0.000000e+00 0.000000e+00 0
0.000000e+00 0.000000e+00 0
0.000000e+00 0.000000e+00 0
2.678666e-17 0.000000e+00 0
0.000000e+00 0.000000e+00 0
0.000000e+00 0.000000e+00 0
0.000000e+00 0.000000e+00 0
0.000000e+00 0.000000e+00 0
0.000000e+00 0.000000e+00 0
0.000000e+00 0.000000e+00 0
0.000000e+00 0.000000e+00 0
2.678639e-17 0.000000e+00 0
0.000000e+00 0.000000e+00 0
0.000000e+00 0.000000e+00 0
0.000000e+00 0.000000e+00 0
0.000000e+00 0.000000e+00 0
0.000000e+00 0.000000e+00 0
0.000000e+00 0.000000e+00 0
0.000000e+00 0.000000e+00 0
2.678615e-17 0.000000e+00 0
0.000000e+00 0.000000e+00 0
0.000000e+00 0.000000e+00 0
0.000000e+00 0.000000e+00 0
0.000000e+00 0.000000e+00 0
0.000000e+00 0.000000e+00 0
0.000000e+00 0.000000e+00 0
0.000000e+00 0.000000e+00 0
0.000000e+00 0.000000e+00 0
0.000000e+00 0.000000e+00 0
0.000000e+00 0.000000e+00 0
0.000000e+00 0.000000e+00 0
0.000000e+00 0.000000e+00 0
0.000000e+00 0.000000e+00 0
0.000000e+00 0.000000e+00 0
0.000000e+00 0.000000e+00 0
0.000000e+00 0.000000e+00 0
0.000000e+00 0.000000e+00 0
0.000000e+00 0.000000e+00 0
0.000000e+00 0.000000e+00 0
0.000000e+00 0.000000e+00 0
0.000000e+00 0.000000e+00 0
0.000000e+00 0.000000e+00 0
0.000000e+00 0.000000e+00 0
0.000000e+00 0.000000e+00 0
0.000000e+00 0.000000e+00 0
0.000000e+00 0.000000e+00 0
0.000000e+00 0.000000e+00 0
0.000000e+00 0.000000e+00 0
0.000000e+00 0.000000e+00 0
0.000000e+00 0.000000e+00 0
0.000000e+00 0.000000e+00 0
0.000000e+00 0.000000e+00 0
0.000000e+00 0.000000e+00 0
0.000000e+00 0.000000e+00 0
0.000000e+00 0.000000e+00 0
0.000000e+00 0.000000e+00 0
0.000000e+00 0.000000e+00 0
0.000000e+00 0.000000e+00 0
0.000000e+00 0.000000e+00 0
0.000000e+00 0.000000e+00 0
0.000000e+00 0.000000e+00 0
0.000000e+00 0.000000e+00 0
0.000000e+00 0.000000e+00 0
0.000000e+00 0.000000e+00 0
0.000000e+00 0.000000e+00 0
0.000000e+00 0.000000e+00 0
0.000000e+00 0.000000e+00 0
0.000000e+00 0.000000e+00 0
0.000000e+00 0.000000e+00 0
0.000000e+00 0.000000e+00 0
0.000000e+00 0.000000e+00 0
0.000000e+00 0.000000e+00 0
0.000000e+00 0.000000e+00 0
0.000000e+00 0.000000e+00 0
0.000000e+00 0.000000e+00 0
0.000000e+00 0.000000e+00 0
0.000000e+00 0.000000e+00 0
0.000000e+00 0.000000e+00 0
0.000000e+00 0.000000e+00 0
0.000000e+00 0.000000e+00 0
0.000000e+00 0.000000e+00 0
0.000000e+00 0.000000e+00 0
0.000000e+00 0.000000e+00 0
0.000000e+00 0.000000e+00 0
0.000000e+00 0.000000e+00 0
0.000000e+00 0.000000e+00 0
0.000000e+00 0.000000e+00 0
0.000000e+00 0.000000e+00 0
0.000000e+00 0.000000e+00 0
0.000000e+00 0.000000e+00 0
0.000000e+00 0.000000e+00 0
0.000000e+00 0.000000e+00 0
0.000000e+00 0.000000e+00 0
0.000000e+00 0.000000e+00 0
0.000000e+00 0.000000e+00 0
0.000000e+00 0.000000e+00 0
0.000000e+00 0.000000e+00 0
0.000000e+00 0.000000e+00 0
0.000000e+00 0.000000e+00 0
0.000000e+00 0.000000e+00 0
0.000000e+00 0.000000e+00 0
0.000000e+00 0.000000e+00 0
0.000000e+00 0.000000e+00 0
0.000000e+00 0.000000e+00 0
0.000000e+00 0.000000e+00 0
0.000000e+00 0.000000e+00 0
0.000000e+00 0.000000e+00 0
0.000000e+00 0.000000e+00 0
0.000000e+00 0.000000e+00 0
0.000000e+00 0.000000e+00 0
0.000000e+00 0.000000e+00 0
0.000000e+00 0.000000e+00 0
0.000000e+00 0.000000e+00 0
0.000000e+00 0.000000e+00 0
0.000000e+00 0.000000e+00 0
0.000000e+00 0.000000e+00 0
2.655523e+00 -1.489379e-09 0
2.655523e+00 -1.202129e-09 0
2.655523e+00 -1.596379e-09 0
2.655523e+00 -3.968320e-09 0
2.655523e+00 -7.763611e-09 0
2.655523e+00 -1.067221e-08 0
2.655523e+00 -9.172781e-09 0
2.655523e+00 -4.200223e-10 0
2.655523e+00 1.326470e-08 0
2.655523e+00 2.352629e-08 0
2.655523e+00 2.307169e-08 0
2.655523e+00 1.184595e-08 0
2.655523e+00 -2.168009e-09 0
2.655523e+00 -8.486236e-09 0
2.655523e+00 -2.528015e-09 0
2.655523e+00 1.080927e-08 0
2.655523e+00 2.159395e-08 0
2.655523e+00 2.255890e-08 0
2.655523e+00 1.386513e-08 0
2.655523e+00 2.786676e-09 0
2.655523e+00 -2.354213e-09 0
2.655523e+00 1.396168e-09 0
2.655523e+00 1.036614e-08 0
2.655523e+00 1.765209e-08 0
2.655523e+00 1.826946e-08 0
2.655523e+00 1.213308e-08 0
2.655523e+00 3.799649e-09 0
2.655523e+00 -1.033920e-09 0
2.655523e+00 4.548985e-10 0
2.655523e+00 6.845951e-09 0
2.655523e+00 1.391344e-08 0
2.655523e+00 1.762827e-08 0
2.655523e+00 1.654643e-08 0
2.655523e+00 1.219870e-08 0
2.655523e+00 7.637264e-09 0
2.655523e+00 5.421262e-09 0
2.655523e+00 6.351301e-09 0
2.655523e+00 9.456162e-09 0
2.655523e+00 1.286689e-08 0
2.655523e+00 1.487045e-08 0
2.655523e+00 1.463075e-08 0
2.655523e+00 1.241110e-08 0
2.655523e+00 9.349895e-09 0
2.655523e+00 6.911048e-09 0
2.655523e+00 6.190836e-09 0
2.655523e+00 7.376469e-09 0
2.655523e+00 9.668283e-09 0
2.655523e+00 1.175536e-08 0
2.655523e+00 1.256887e-08 0
2.655523e+00 1.185269e-08 0
2.655523e+00 1.022306e-08 0
2.655523e+00 8.714199e-09 0
2.655523e+00 8.123786e-09 0
2.655523e+00 8.593083e-09 0
2.655523e+00 9.640892e-09 0
2.655523e+00 1.053704e-08 0
2.655523e+00 1.074632e-08 0
2.655523e+00 1.019121e-08 0
2.655523e+00 9.225399e-09 0
2.655523e+00 8.363292e-09 0
2.655523e+00 7.955077e-09 0
2.655523e+00 8.016374e-09 0
2.655523e+00 8.285937e-09 0
2.655523e+00 8.442885e-09 0
2.655523e+00 8.326023e-09 0
2.655523e+00 8.012222e-09 0
2.655523e+00 7.717906e-09 0
2.655523e+00 7.616689e-09 0
2.655523e+00 7.712427e-09 0
2.655523e+00 7.851448e-09 0
2.655523e+00 7.850798e-09 0
2.655523e+00 7.641677e-09 0
2.655523e+00 7.323813e-09 0
2.655523e+00 7.092818e-09 0
2.655523e+00 7.093725e-09 0
2.655523e+00 7.308450e-09 0
2.655523e+00 7.563636e-09 0
2.655523e+00 7.658230e-09 0
2.655523e+00 7.517082e-09 0
2.655523e+00 7.250969e-09 0
2.655523e+00 7.072533e-09 0
2.655522e+00 7.133183e-09 0
2.655522e+00 7.412209e-09 0
2.655522e+00 7.743339e-09 0
2.655522e+00 7.948061e-09 0
2.655522e+00 7.962361e-09 0
2.655522e+00 7.860814e-09 0
2.655522e+00 7.775320e-09 0
2.655522e+00 7.787817e-09 0
2.655522e+00 7.883384e-09 0
2.655522e+00 7.985128e-09 0
2.655522e+00 8.023215e-09 0
2.655522e+00 7.978529e-09 0
2.655522e+00 7.876998e-09 0
2.655522e+00 7.753866e-09 0
2.655522e+00 7.629542e-09 0
2.655522e+00 7.511213e-09 0
2.655522e+00 7.403757e-09 0
2.655522e+00 7.314103e-09 0
2.655522e+00 7.241337e-09 0
2.655522e+00 7.166381e-09 0
2.655522e+00 7.059784e-09 0
2.655522e+00 6.906124e-09 0
2.655522e+00 6.723634e-09 0
2.655522e+00 6.556756e-09 0
2.655522e+00 6.445061e-09 0
2.655522e+00 6.395072e-09 0
2.655522e+00 6.377238e-09 0
2.655522e+00 6.348900e-09 0
2.655522e+00 6.283282e-09 0
2.655522e+00 6.185071e-09 0
2.655522e+00 6.086043e-09 0
2.655522e+00 6.025246e-09 0
2.655522e+00 6.026203e-09 0
2.655522e+00 6.084845e-09 0
2.655522e+00 6.175350e-09 0
2.655522e+00 6.267384e-09 0
2.655522e+00 6.342236e-09 0
2.655522e+00 6.398100e-09 0
2.655522e+00 6.442245e-09 0
2.655522e+00 6.478978e-09 0
2.655522e+00 6.507442e-09 0
2.655522e+00 6.528182e-09 0
2.655522e+00 6.545307e-09 0
2.655522e+00 6.560779e-09 0
2.655522e+00 6.568456e-09 0
2.655522e+00 6.556237e-09 0
2.655522e+00 6.515600e-09 0
2.655522e+00 6.449111e-09 0
2.655522e+00 6.368887e-09 0
2.655522e+00 6.288264e-09 0
2.655522e+00 6.214094e-09 0
2.655522e+00 6.145904e-09 0
2.655522e+00 6.081112e-09 0
2.655522e+00 6.019295e-09 0
2.655522e+00 5.963165e-09 0
2.655522e+00 5.916362e-09 0
2.655522e+00 5.880026e-09 0
2.655522e+00 5.852326e-09 0
2.655522e+00 5.829257e-09 0
2.655522e+00 5.807062e-09 0
2.655522e+00 5.784914e-09 0
2.655522e+00 5.763204e-09 0
2.655522e+00 5.741510e-09 0
2.655522e+00 5.719001e-09 0
2.655522e+00 5.694007e-09 0
2.655522e+00 5.664437e-09 0
2.655522e+00 5.629217e-09 0
2.655522e+00 5.588193e-09 0
2.655522e+00 5.541422e-09 0
2.655522e+00 5.489239e-09 0
2.655522e+00 5.430489e-09 0
2.655522e+00 5.362327e-09 0
2.655522e+00 5.277164e-09 0
2.655522e+00 5.155936e-09 0
2.655522e+00 4.942117e-09 0
2.655522e+00 4.470966e-09 0
2.655522e+00 2.671922e-09 0
2.655522e+00 1.203045e-09 0
5.095032e+00 -5.659709e-09 0
5.095032e+00 -6.131525e-09 0
5.095032e+00 -7.002209e-09 0
5.095032e+00 -9.387764e-09 0
5.095032e+00 -1.409099e-08 0
5.095032e+00 -1.697084e-08 0
5.095032e+00 -1.202446e-08 0
5.095032e+00 1.866410e-09 0
5.095032e+00 1.771607e-08 0
5.095032e+00 2.505875e-08 0
5.095032e+00 1.853777e-08 0
5.095032e+00 2.999376e-09 0
5.095032e+00 -9.901033e-09 0
5.095032e+00 -1.073858e-08 0
5.095032e+00 4.187926e-10 0
5.095032e+00 1.471548e-08 0
5.095032e+00 2.200314e-08 0
5.095032e+00 1.810362e-08 0
5.095032e+00 7.290341e-09 0
5.095032e+00 -1.735703e-09 0
5.095032e+00 -2.663926e-09 0
5.095032e+00 4.291480e-09 0
5.095032e+00 1.332149e-08 0
5.095032e+00 1.808787e-08 0
5.095032e+00 1.577202e-08 0
5.095032e+00 8.584183e-09 0
5.095032e+00 1.875669e-09 0
5.095032e+00 3.088297e-11 0
5.095032e+00 3.918015e-09 0
5.095032e+00 1.080322e-08 0
5.095032e+00 1.655561e-08 0
5.095032e+00 1.835121e-08 0
5.095032e+00 1.609109e-08 0
5.095032e+00 1.192380e-08 0
5.095032e+00 8.572168e-09 0
5.095032e+00 7.746864e-09 0
5.095032e+00 9.510797e-09 0
5.095032e+00 1.263734e-08 0
5.095032e+00 1.545212e-08 0
5.095032e+00 1.663012e-08 0
5.095032e+00 1.568525e-08 0
5.095032e+00 1.310099e-08 0
5.095032e+00 1.010096e-08 0
5.095032e+00 8.088679e-09 0
5.095032e+00 7.943170e-09 0
5.095032e+00 9.547264e-09 0
5.095032e+00 1.186862e-08 0
5.095032e+00 1.357097e-08 0
5.095032e+00 1.379051e-08 0
5.095032e+00 1.258981e-08 0
5.095032e+00 1.081284e-08 0
5.095032e+00 9.484359e-09 0
5.095032e+00 9.197613e-09 0
5.095032e+00 9.855640e-09 0
5.095032e+00 1.084264e-08 0
5.095032e+00 1.145241e-08 0
5.095032e+00 1.129376e-08 0
5.095032e+00 1.045803e-08 0
5.095032e+00 9.383251e-09 0
5.095032e+00 8.549033e-09 0
5.095032e+00 8.207333e-09 0
5.095032e+00 8.285961e-09 0
5.095032e+00 8.493742e-09 0
5.095032e+00 8.545238e-09 0
5.095032e+00 8.346295e-09 0
5.095032e+00 8.019259e-09 0
5.095032e+00 7.776602e-09 0
5.095032e+00 7.748594e-09 0
5.095032e+00 7.893623e-09 0
5.095032e+00 8.045888e-09 0
5.095032e+00 8.052221e-09 0
5.095032e+00 7.890928e-09 0
5.095032e+00 7.686450e-09 0
5.095032e+00 7.613093e-09 0
5.095032e+00 7.760413e-09 0
5.095032e+00 8.060580e-09 0
5.095032e+00 8.335469e-09 0
5.095032e+00 8.432158e-09 0
5.095032e+00 8.343417e-09 0
5.095032e+00 8.215302e-09 0
5.095032e+00 8.232718e-09 0
5.095032e+00 8.476267e-09 0
5.095032e+00 8.865407e-09 0
5.095032e+00 9.227309e-09 0
5.095032e+00 9.427987e-09 0
5.095032e+00 9.456980e-09 0
5.095032e+00 9.406346e-09 0
5.095032e+00 9.377207e-09 0
5.095032e+00 9.400672e-09 0
5.095032e+00 9.431952e-09 0
5.095032e+00 9.401893e-09 0
5.095032e+00 9.272368e-09 0
5.095032e+00 9.052238e-09 0
5.095032e+00 8.772729e-09 0
5.095032e+00 8.460111e-09 0
5.095032e+00 8.129562e-09 0
5.095032e+00 7.795861e-09 0
5.095032e+00 7.481941e-09 0
5.095032e+00 7.209069e-09 0
5.095032e+00 6.978214e-09 0
5.095032e+00 6.765670e-09 0
5.095032e+00 6.542465e-09 0
5.095032e+00 6.303314e-09 0
5.095032e+00 6.076461e-09 0
5.095032e+00 5.903514e-09 0
5.095032e+00 5.807207e-09 0
5.095032e+00 5.772355e-09 0
5.095032e+00 5.755460e-09 0
5.095032e+00 5.715265e-09 0
5.095032e+00 5.639214e-09 0
5.095032e+00 5.547681e-09 0
5.095032e+00 5.477633e-09 0
5.095032e+00 5.458797e-09 0
5.095032e+00 5.497827e-09 0
5.095032e+00 5.577900e-09 0
5.095032e+00 5.671301e-09 0
5.095032e+00 5.755713e-09 0
5.095032e+00 5.823456e-09 0
5.095032e+00 5.878682e-09 0
5.095032e+00 5.926547e-09 0
5.095032e+00 5.968270e-09 0
5.095032e+00 6.004667e-09 0
5.095032e+00 6.039203e-09 0
5.095032e+00 6.075590e-09 0
5.095032e+00 6.111145e-09 0
5.095032e+00 6.134725e-09 0
5.095032e+00 6.134200e-09 0
5.095032e+00 6.106526e-09 0
5.095032e+00 6.060339e-09 0
5.095032e+00 6.008826e-09 0
5.095032e+00 5.960369e-09 0
5.095032e+00 5.915228e-09 0
5.095032e+00 5.869773e-09 0
5.095032e+00 5.822108e-09 0
5.095032e+00 5.774253e-09 0
5.095032e+00 5.730549e-09 0
5.095032e+00 5.693351e-09 0
5.095032e+00 5.661388e-09 0
5.095032e+00 5.631218e-09 0
5.095032e+00 5.599759e-09 0
5.095032e+00 5.566858e-09 0
5.095032e+00 5.533857e-09 0
5.095032e+00 5.501393e-09 0
5.095032e+00 5.469160e-09 0
5.095032e+00 5.435973e-09 0
5.095032e+00 5.399835e-09 0
5.095032e+00 5.359479e-09 0
5.095032e+00 5.314842e-09 0
5.095032e+00 5.265738e-09 0
5.095032e+00 5.212298e-09 0
5.095032e+00 5.153036e-09 0
5.095032e+00 5.084692e-09 0
5.095032e+00 4.999989e-09 0
5.095032e+00 4.883889e-09 0
5.095032e+00 4.704392e-09 0
5.095032e+00 4.391371e-09 0
5.095032e+00 3.798717e-09 0
5.095032e+00 2.618477e-09 0
5.095032e+00 1.829153e-09 0
7.324675e+00 -6.381296e-09 0
7.324675e+00 -7.415486e-09 0
7.324675e+00 -9.179238e-09 0
7.324675e+00 -1.264700e-08 0
7.324675e+00 -1.836078e-08 0
7.324675e+00 -1.997456e-08 0
7.324675e+00 -1.085569e-08 0
7.324675e+00 7.112113e-09 0
7.324675e+00 2.296608e-08 0
7.324675e+00 2.548450e-08 0
7.324675e+00 1.283352e-08 0
7.324675e+00 -5.271373e-09 0
7.324675e+00 -1.515197e-08 0
7.324675e+00 -1.021030e-08 0
7.324675e+00 4.486260e-09 0
7.324675e+00 1.747315e-08 0
7.324675e+00 2.000794e-08 0
7.324675e+00 1.194639e-08 0
7.324675e+00 8.681563e-10 0
7.324675e+00 -4.443609e-09 0
7.324675e+00 -6.654236e-10 0
7.324675e+00 8.509703e-09 0
7.324675e+00 1.623488e-08 0
7.324675e+00 1.753458e-08 0
7.324675e+00 1.227198e-08 0
7.324675e+00 4.763328e-09 0
7.324675e+00 2.782879e-10 0
7.324675e+00 1.478304e-09 0
7.324675e+00 7.180947e-09 0
7.324675e+00 1.365707e-08 0
7.324675e+00 1.737995e-08 0
7.324675e+00 1.704606e-08 0
7.324675e+00 1.385182e-08 0
7.324675e+00 1.028034e-08 0
7.324675e+00 8.441709e-09 0
7.324675e+00 9.096367e-09 0
7.324675e+00 1.165730e-08 0
7.324675e+00 1.479646e-08 0
7.324675e+00 1.712903e-08 0
7.324675e+00 1.771383e-08 0
7.324675e+00 1.635874e-08 0
7.324675e+00 1.371946e-08 0
7.324675e+00 1.107259e-08 0
7.324675e+00 9.716165e-09 0
7.324675e+00 1.025837e-08 0
7.324675e+00 1.224676e-08 0
7.324675e+00 1.442532e-08 0
7.324675e+00 1.550112e-08 0
7.324675e+00 1.491565e-08 0
7.324675e+00 1.310126e-08 0
7.324675e+00 1.109924e-08 0
7.324675e+00 9.873976e-09 0
7.324675e+00 9.781673e-09 0
7.324675e+00 1.047372e-08 0
7.324675e+00 1.121681e-08 0
7.324675e+00 1.137260e-08 0
7.324675e+00 1.073518e-08 0
7.324675e+00 9.562865e-09 0
7.324675e+00 8.357856e-09 0
7.324675e+00 7.560256e-09 0
7.324675e+00 7.319166e-09 0
7.324675e+00 7.455925e-09 0
7.324675e+00 7.636390e-09 0
7.324675e+00 7.612772e-09 0
7.324675e+00 7.368622e-09 0
7.324675e+00 7.085185e-09 0
7.324675e+00 6.972541e-09 0
7.324675e+00 7.106768e-09 0
7.324675e+00 7.386485e-09 0
7.324675e+00 7.627687e-09 0
7.324675e+00 7.711442e-09 0
7.324675e+00 7.670155e-09 0
7.324675e+00 7.654060e-09 0
7.324675e+00 7.807846e-09 0
7.324675e+00 8.151190e-09 0
7.324675e+00 8.555462e-09 0
7.324675e+00 8.838578e-09 0
7.324675e+00 8.907132e-09 0
7.324675e+00 8.831754e-09 0
7.324675e+00 8.792341e-09 0
7.324675e+00 8.937368e-09 0
7.324675e+00 9.271513e-09 0
7.324675e+00 9.659644e-09 0
7.324675e+00 9.937994e-09 0
7.324675e+00 1.003448e-08 0
7.324675e+00 1.000007e-08 0
7.324675e+00 9.938989e-09 0
7.324675e+00 9.911736e-09 0
7.324675e+00 9.894692e-09 0
7.324675e+00 9.814654e-09 0
7.324675e+00 9.613719e-09 0
7.324675e+00 9.284777e-09 0
7.324675e+00 8.856719e-09 0
7.324675e+00 8.359715e-09 0
7.324675e+00 7.809600e-09 0
7.324675e+00 7.220470e-09 0
7.324675e+00 6.623127e-09 0
7.324675e+00 6.063940e-09 0
7.324675e+00 5.579483e-09 0
7.324675e+00 5.173740e-09 0
7.324675e+00 4.822170e-09 0
7.324675e+00 4.501643e-09 0
7.324675e+00 4.217652e-09 0
7.324675e+00 4.003275e-09 0
7.324675e+00 3.891068e-09 0
7.324675e+00 3.879791e-09 0
7.324675e+00 3.927738e-09 0
7.324675e+00 3.979657e-09 0
7.324675e+00 4.003058e-09 0
7.324675e+00 4.003741e-09 0
7.324675e+00 4.013393e-09 0
7.324675e+00 4.064415e-09 0
7.324675e+00 4.170001e-09 0
7.324675e+00 4.319018e-09 0
7.324675e+00 4.486339e-09 0
7.324675e+00 4.647838e-09 0
7.324675e+00 4.790458e-09 0
7.324675e+00 4.913095e-09 0
7.324675e+00 5.018617e-09 0
7.324675e+00 5.108186e-09 0
7.324675e+00 5.182725e-09 0
7.324675e+00 5.246849e-09 0
7.324675e+00 5.307608e-09 0
7.324675e+00 5.366117e-09 0
7.324675e+00 5.412968e-09 0
7.324675e+00 5.434365e-09 0
7.324675e+00 5.423520e-09 0
7.324675e+00 5.386630e-09 0
7.324675e+00 5.337662e-09 0
7.324675e+00 5.287607e-09 0
7.324675e+00 5.238582e-09 0
7.324675e+00 5.186539e-09 0
7.324675e+00 5.128385e-09 0
7.324675e+00 5.066335e-09 0
7.324675e+00 5.006207e-09 0
7.324675e+00 4.951942e-09 0
7.324675e+00 4.902584e-09 0
7.324675e+00 4.854493e-09 0
7.324675e+00 4.804791e-09 0
7.324675e+00 4.753460e-09 0
7.324675e+00 4.702445e-09 0
7.324675e+00 4.653410e-09 0
7.324675e+00 4.606578e-09 0
7.324675e+00 4.560411e-09 0
7.324675e+00 4.512111e-09 0
7.324675e+00 4.459502e-09 0
7.324675e+00 4.401928e-09 0
7.324675e+00 4.339366e-09 0
7.324675e+00 4.272139e-09 0
7.324675e+00 4.199930e-09 0
7.324675e+00 4.120397e-09 0
7.324675e+00 4.029382e-09 0
7.324675e+00 3.919268e-09 0
7.324675e+00 3.776129e-09 0
7.324675e+00 3.575674e-09 0
7.324675e+00 3.281213e-09 0
7.324675e+00 2.859308e-09 0
7.324675e+00 2.267154e-09 0
7.324675e+00 1.920901e-09 0
9.350455e+00 -3.951263e-09 0
9.350455e+00 -5.322779e-09 0
9.350455e+00 -9.021431e-09 0
9.350455e+00 -1.567876e-08 0
9.350455e+00 -2.253433e-08 0
9.350455e+00 -2.067134e-08 0
9.350455e+00 -5.498084e-09 0
9.350455e+00 1.549482e-08 0
9.350455e+00 2.788316e-08 0
9.350455e+00 2.271360e-08 0
9.350455e+00 4.348005e-09 0
9.350455e+00 -1.284406e-08 0
9.350455e+00 -1.634701e-08 0
9.350455e+00 -5.284512e-09 0
9.350455e+00 1.024312e-08 0
9.350455e+00 1.841533e-08 0
9.350455e+00 1.462365e-08 0
9.350455e+00 3.792459e-09 0
9.350455e+00 -4.466472e-09 0
9.350455e+00 -3.795350e-09 0
9.350455e+00 4.587649e-09 0
9.350455e+00 1.402493e-08 0
9.350455e+00 1.816359e-08 0
9.350455e+00 1.495221e-08 0
9.350455e+00 7.482866e-09 0
9.350455e+00 1.342065e-09 0
9.350455e+00 4.575520e-10 0
9.350455e+00 4.918694e-09 0
9.350455e+00 1.150388e-08 0
9.350455e+00 1.635105e-08 0
9.350455e+00 1.735682e-08 0
9.350455e+00 1.500672e-08 0
9.350455e+00 1.151465e-08 0
9.350455e+00 9.125595e-09 0
9.350455e+00 8.947147e-09 0
9.350455e+00 1.078955e-08 0
9.350455e+00 1.368764e-08 0
9.350455e+00 1.648257e-08 0
9.350455e+00 1.816979e-08 0
9.350455e+00 1.812928e-08 0
9.350455e+00 1.638540e-08 0
9.350455e+00 1.375611e-08 0
9.350455e+00 1.158775e-08 0
9.350455e+00 1.104831e-08 0
9.350455e+00 1.239044e-08 0
9.350455e+00 1.473690e-08 0
9.350455e+00 1.661729e-08 0
9.350455e+00 1.690663e-08 0
9.350455e+00 1.549003e-08 0
9.350455e+00 1.321715e-08 0
9.350455e+00 1.127046e-08 0
9.350455e+00 1.042622e-08 0
9.350455e+00 1.067835e-08 0
9.350455e+00 1.138987e-08 0
9.350455e+00 1.177808e-08 0
9.350455e+00 1.137231e-08 0
9.350455e+00 1.020021e-08 0
9.350455e+00 8.688720e-09 0
9.350455e+00 7.382571e-09 0
9.350455e+00 6.633658e-09 0
9.350455e+00 6.438422e-09 0
9.350455e+00 6.508895e-09 0
9.350455e+00 6.501640e-09 0
9.350455e+00 6.250946e-09 0
9.350455e+00 5.847162e-09 0
9.350455e+00 5.530078e-09 0
9.350455e+00 5.491114e-09 0
9.350455e+00 5.732067e-09 0
9.350455e+00 6.087900e-09 0
9.350455e+00 6.370481e-09 0
9.350455e+00 6.513654e-09 0
9.350455e+00 6.613002e-09 0
9.350455e+00 6.834781e-09 0