<?xml version="1.0"?>
<VTKFile type="StructuredGrid">
<StructuredGrid WholeExtent="0 158 0 30 0 0 ">
<Piece Extent="0 158 0 30 0 0 ">
<Points>
<DataArray type="Float64" format="ascii" NumberOfComponents="3">
0.000000e+00 0.000000e+00 0.000000e+00
3.164557e-02 0.000000e+00 0.000000e+00
6.329114e-02 0.000000e+00 0.000000e+00
9.493671e-02 0.000000e+00 0.000000e+00
1.265823e-01 0.000000e+00 0.000000e+00
1.582278e-01 0.000000e+00 0.000000e+00
1.898734e-01 0.000000e+00 0.000000e+00
2.215190e-01 0.000000e+00 0.000000e+00
2.531646e-01 0.000000e+00 0.000000e+00
2.848101e-01 0.000000e+00 0.000000e+00
3.164557e-01 0.000000e+00 0.000000e+00
3.481013e-01 0.000000e+00 0.000000e+00
3.797468e-01 0.000000e+00 0.000000e+00
4.113924e-01 0.000000e+00 0.000000e+00
4.430380e-01 0.000000e+00 0.000000e+00
4.746835e-01 0.000000e+00 0.000000e+00
5.063291e-01 0.000000e+00 0.000000e+00
5.379747e-01 0.000000e+00 0.000000e+00
5.696203e-01 0.000000e+00 0.000000e+00
6.012658e-01 0.000000e+00 0.000000e+00
6.329114e-01 0.000000e+00 0.000000e+00
6.645570e-01 0.000000e+00 0.000000e+00
6.962025e-01 0.000000e+00 0.000000e+00
7.278481e-01 0.000000e+00 0.000000e+00
7.594937e-01 0.000000e+00 0.000000e+00
7.911392e-01 0.000000e+00 0.000000e+00
8.227848e-01 0.000000e+00 0.000000e+00
8.544304e-01 0.000000e+00 0.000000e+00
8.860759e-01 0.000000e+00 0.000000e+00
9.177215e-01 0.000000e+00 0.000000e+00
9.493671e-01 0.000000e+00 0.000000e+00
9.810127e-01 0.000000e+00 0.000000e+00
1.012658e+00 0.000000e+00 0.000000e+00
1.044304e+00 0.000000e+00 0.000000e+00
1.075949e+00 0.000000e+00 0.000000e+00
1.107595e+00 0.000000e+00 0.000000e+00
1.139241e+00 0.000000e+00 0.000000e+00
1.170886e+00 0.000000e+00 0.000000e+00
1.202532e+00 0.000000e+00 0.000000e+00
1.234177e+00 0.000000e+00 0.000000e+00
1.265823e+00 0.000000e+00 0.000000e+00
1.297468e+00 0.000000e+00 0.000000e+00
1.329114e+00 0.000000e+00 0.000000e+00
1.360759e+00 0.000000e+00 0.000000e+00
1.392405e+00 0.000000e+00 0.000000e+00
1.424051e+00 0.000000e+00 0.000000e+00
1.455696e+00 0.000000e+00 0.000000e+00
1.487342e+00 0.000000e+00 0.000000e+00
1.518987e+00 0.000000e+00 0.000000e+00
1.550633e+00 0.000000e+00 0.000000e+00
1.582278e+00 0.000000e+00 0.000000e+00
1.613924e+00 0.000000e+00 0.000000e+00
1.645570e+00 0.000000e+00 0.000000e+00
1.677215e+00 0.000000e+00 0.000000e+00
1.708861e+00 0.000000e+00 0.000000e+00
1.740506e+00 0.000000e+00 0.000000e+00
1.772152e+00 0.000000e+00 0.000000e+00
1.803797e+00 0.000000e+00 0.000000e+00
1.835443e+00 0.000000e+00 0.000000e+00
1.867089e+00 0.000000e+00 0.000000e+00
1.898734e+00 0.000000e+00 0.000000e+00
1.930380e+00 0.000000e+00 0.000000e+00
1.962025e+00 0.000000e+00 0.000000e+00
1.993671e+00 0.000000e+00 0.000000e+00
2.025316e+00 0.000000e+00 0.000000e+00
2.056962e+00 0.000000e+00 0.000000e+00
2.088608e+00 0.000000e+00 0.000000e+00
2.120253e+00 0.000000e+00 0.000000e+00
2.151899e+00 0.000000e+00 0.000000e+00
2.183544e+00 0.000000e+00 0.000000e+00
2.215190e+00 0.000000e+00 0.000000e+00
2.246835e+00 0.000000e+00 0.000000e+00
2.278481e+00 0.000000e+00 0.000000e+00
2.310127e+00 0.000000e+00 0.000000e+00
2.341772e+00 0.000000e+00 0.000000e+00
2.373418e+00 0.000000e+00 0.000000e+00
2.405063e+00 0.000000e+00 0.000000e+00
2.436709e+00 0.000000e+00 0.000000e+00
2.468354e+00 0.000000e+00 0.000000e+00
2.500000e+00 0.000000e+00 0.000000e+00
2.531646e+00 0.000000e+00 0.000000e+00
2.563291e+00 0.000000e+00 0.000000e+00
2.594937e+00 0.000000e+00 0.000000e+00
2.626582e+00 0.000000e+00 0.000000e+00
2.658228e+00 0.000000e+00 0.000000e+00
2.689873e+00 0.000000e+00 0.000000e+00
2.721519e+00 0.000000e+00 0.000000e+00
2.753165e+00 0.000000e+00 0.000000e+00
2.784810e+00 0.000000e+00 0.000000e+00
2.816456e+00 0.000000e+00 0.000000e+00
2.848101e+00 0.000000e+00 0.000000e+00
2.879747e+00 0.000000e+00 0.000000e+00
2.911392e+00 0.000000e+00 0.000000e+00
2.943038e+00 0.000000e+00 0.000000e+00
2.974684e+00 0.000000e+00 0.000000e+00
3.006329e+00 0.000000e+00 0.000000e+00
3.037975e+00 0.000000e+00 0.000000e+00
3.069620e+00 0.000000e+00 0.000000e+00
3.101266e+00 0.000000e+00 0.000000e+00
3.132911e+00 0.000000e+00 0.000000e+00
3.164557e+00 0.000000e+00 0.000000e+00
3.196203e+00 0.000000e+00 0.000000e+00
3.227848e+00 0.000000e+00 0.000000e+00
3.259494e+00 0.000000e+00 0.000000e+00
3.291139e+00 0.000000e+00 0.000000e+00
3.322785e+00 0.000000e+00 0.000000e+00
3.354430e+00 0.000000e+00 0.000000e+00
3.386076e+00 0.000000e+00 0.000000e+00
3.417722e+00 0.000000e+00 0.000000e+00
3.449367e+00 0.000000e+00 0.000000e+00
3.481013e+00 0.000000e+00 0.000000e+00
3.512658e+00 0.000000e+00 0.000000e+00
3.544304e+00 0.000000e+00 0.000000e+00
3.575949e+00 0.000000e+00 0.000000e+00
3.607595e+00 0.000000e+00 0.000000e+00
3.639241e+00 0.000000e+00 0.000000e+00
3.670886e+00 0.000000e+00 0.000000e+00
3.702532e+00 0.000000e+00 0.000000e+00
3.734177e+00 0.000000e+00 0.000000e+00
3.765823e+00 0.000000e+00 0.000000e+00
3.797468e+00 0.000000e+00 0.000000e+00
3.829114e+00 0.000000e+00 0.000000e+00
3.860759e+00 0.000000e+00 0.000000e+00
3.892405e+00 0.000000e+00 0.000000e+00
3.924051e+00 0.000000e+00 0.000000e+00
3.955696e+00 0.000000e+00 0.000000e+00
3.987342e+00 0.000000e+00 0.000000e+00
4.018987e+00 0.000000e+00 0.000000e+00
4.050633e+00 0.000000e+00 0.000000e+00
4.082278e+00 0.000000e+00 0.000000e+00
4.113924e+00 0.000000e+00 0.000000e+00
4.145570e+00 0.000000e+00 0.000000e+00
4.177215e+00 0.000000e+00 0.000000e+00
4.208861e+00 0.000000e+00 0.000000e+00
4.240506e+00 0.000000e+00 0.000000e+00
4.272152e+00 0.000000e+00 0.000000e+00
4.303797e+00 0.000000e+00 0.000000e+00
4.335443e+00 0.000000e+00 0.000000e+00
4.367089e+00 0.000000e+00 0.000000e+00
4.398734e+00 0.000000e+00 0.000000e+00
4.430380e+00 0.000000e+00 0.000000e+00
4.462025e+00 0.000000e+00 0.000000e+00
4.493671e+00 0.000000e+00 0.000000e+00
4.525316e+00 0.000000e+00 0.000000e+00
4.556962e+00 0.000000e+00 0.000000e+00
4.588608e+00 0.000000e+00 0.000000e+00
4.620253e+00 0.000000e+00 0.000000e+00
4.651899e+00 0.000000e+00 0.000000e+00
4.683544e+00 0.000000e+00 0.000000e+00
4.715190e+00 0.000000e+00 0.000000e+00
4.746835e+00 0.000000e+00 0.000000e+00
4.778481e+00 0.000000e+00 0.000000e+00
4.810127e+00 0.000000e+00 0.000000e+00
4.841772e+00 0.000000e+00 0.000000e+00
4.873418e+00 0.000000e+00 0.000000e+00
4.905063e+00 0.000000e+00 0.000000e+00
4.936709e+00 0.000000e+00 0.000000e+00
4.968354e+00 0.000000e+00 0.000000e+00
5.000000e+00 0.000000e+00 0.000000e+00
0.000000e+00 3.333333e-02 0.000000e+00
3.164557e-02 3.333333e-02 0.000000e+00
6.329114e-02 3.333333e-02 0.000000e+00
9.493671e-02 3.333333e-02 0.000000e+00
1.265823e-01 3.333333e-02 0.000000e+00
1.582278e-01 3.333333e-02 0.000000e+00
1.898734e-01 3.333333e-02 0.000000e+00
2.215190e-01 3.333333e-02 0.000000e+00
2.531646e-01 3.333333e-02 0.000000e+00
2.848101e-01 3.333333e-02 0.000000e+00
3.164557e-01 3.333333e-02 0.000000e+00
3.481013e-01 3.333333e-02 0.000000e+00
3.797468e-01 3.333333e-02 0.000000e+00
4.113924e-01 3.333333e-02 0.000000e+00
4.430380e-01 3.333333e-02 0.000000e+00
4.746835e-01 3.333333e-02 0.000000e+00
5.063291e-01 3.333333e-02 0.000000e+00
5.379747e-01 3.333333e-02 0.000000e+00
5.696203e-01 3.333333e-02 0.000000e+00
6.012658e-01 3.333333e-02 0.000000e+00
6.329114e-01 3.333333e-02 0.000000e+00
6.645570e-01 3.333333e-02 0.000000e+00
6.962025e-01 3.333333e-02 0.000000e+00
7.278481e-01 3.333333e-02 0.000000e+00
7.594937e-01 3.333333e-02 0.000000e+00
7.911392e-01 3.333333e-02 0.000000e+00
8.227848e-01 3.333333e-02 0.000000e+00
8.544304e-01 3.333333e-02 0.000000e+00
8.860759e-01 3.333333e-02 0.000000e+00
9.177215e-01 3.333333e-02 0.000000e+00
9.493671e-01 3.333333e-02 0.000000e+00
9.810127e-01 3.333333e-02 0.000000e+00
1.012658e+00 3.333333e-02 0.000000e+00
1.044304e+00 3.333333e-02 0.000000e+00
1.075949e+00 3.333333e-02 0.000000e+00
1.107595e+00 3.333333e-02 0.000000e+00
1.139241e+00 3.333333e-02 0.000000e+00
1.170886e+00 3.333333e-02 0.000000e+00
1.202532e+00 3.333333e-02 0.000000e+00
1.234177e+00 3.333333e-02 0.000000e+00
1.265823e+00 3.333333e-02 0.000000e+00
1.297468e+00 3.333333e-02 0.000000e+00
1.329114e+00 3.333333e-02 0.000000e+00
1.360759e+00 3.333333e-02 0.000000e+00
1.392405e+00 3.333333e-02 0.000000e+00
1.424051e+00 3.333333e-02 0.000000e+00
1.455696e+00 3.333333e-02 0.000000e+00
1.487342e+00 3.333333e-02 0.000000e+00
1.518987e+00 3.333333e-02 0.000000e+00
1.550633e+00 3.333333e-02 0.000000e+00
1.582278e+00 3.333333e-02 0.000000e+00
1.613924e+00 3.333333e-02 0.000000e+00
1.645570e+00 3.333333e-02 0.000000e+00
1.677215e+00 3.333333e-02 0.000000e+00
1.708861e+00 3.333333e-02 0.000000e+00
1.740506e+00 3.333333e-02 0.000000e+00
1.772152e+00 3.333333e-02 0.000000e+00
1.803797e+00 3.333333e-02 0.000000e+00
1.835443e+00 3.333333e-02 0.000000e+00
1.867089e+00 3.333333e-02 0.000000e+00
1.898734e+00 3.333333e-02 0.000000e+00
1.930380e+00 3.333333e-02 0.000000e+00
1.962025e+00 3.333333e-02 0.000000e+00
1.993671e+00 3.333333e-02 0.000000e+00
2.025316e+00 3.333333e-02 0.000000e+00
2.056962e+00 3.333333e-02 0.000000e+00
2.088608e+00 3.333333e-02 0.000000e+00
2.120253e+00 3.333333e-02 0.000000e+00
2.151899e+00 3.333333e-02 0.000000e+00
2.183544e+00 3.333333e-02 0.000000e+00
2.215190e+00 3.333333e-02 0.000000e+00
2.246835e+00 3.333333e-02 0.000000e+00
2.278481e+00 3.333333e-02 0.000000e+00
2.310127e+00 3.333333e-02 0.000000e+00
2.341772e+00 3.333333e-02 0.000000e+00
2.373418e+00 3.333333e-02 0.000000e+00
2.405063e+00 3.333333e-02 0.000000e+00
2.436709e+00 3.333333e-02 0.000000e+00
2.468354e+00 3.333333e-02 0.000000e+00
2.500000e+00 3.333333e-02 0.000000e+00
2.531646e+00 3.333333e-02 0.000000e+00
2.563291e+00 3.333333e-02 0.000000e+00
2.594937e+00 3.333333e-02 0.000000e+00
2.626582e+00 3.333333e-02 0.000000e+00
2.658228e+00 3.333333e-02 0.000000e+00
2.689873e+00 3.333333e-02 0.000000e+00
2.721519e+00 3.333333e-02 0.000000e+00
2.753165e+00 3.333333e-02 0.000000e+00
2.784810e+00 3.333333e-02 0.000000e+00
2.816456e+00 3.333333e-02 0.000000e+00
2.848101e+00 3.333333e-02 0.000000e+00
2.879747e+00 3.333333e-02 0.000000e+00
[...]
<PointData>
<DataArray Name="Velocity" type="Float64" format="ascii" NumberOfComponents="3">
0.000000e+00 0.000000e+00 0
0.000000e+00 0.000000e+00 0
0.000000e+00 0.000000e+00 0
0.000000e+00 0.000000e+00 0
0.000000e+00 0.000000e+00 0
0.000000e+00 0.000000e+00 0
0.000000e+00 0.000000e+00 0
0.000000e+00 0.000000e+00 0
0.000000e+00 0.000000e+00 0
0.000000e+00 0.000000e+00 0
0.000000e+00 0.000000e+00 0
0.000000e+00 0.000000e+00 0
0.000000e+00 0.000000e+00 0
0.000000e+00 0.000000e+00 0
0.000000e+00 0.000000e+00 0
0.000000e+00 0.000000e+00 0
0.000000e+00 0.000000e+00 0
0.000000e+00 0.000000e+00 0
0.000000e+00 0.000000e+00 0
-1.175150e-17 0.000000e+00 0
0.000000e+00 0.000000e+00 0
0.000000e+00 0.000000e+00 0
0.000000e+00 0.000000e+00 0
-1.175165e-17 0.000000e+00 0
0.000000e+00 0.000000e+00 0
0.000000e+00 0.000000e+00 0
0.000000e+00 0.000000e+00 0
-1.175180e-17 0.000000e+00 0
0.000000e+00 0.000000e+00 0
0.000000e+00 0.000000e+00 0
0.000000e+00 0.000000e+00 0
-1.175194e-17 0.000000e+00 0
0.000000e+00 0.000000e+00 0
0.000000e+00 0.000000e+00 0
0.000000e+00 0.000000e+00 0
0.000000e+00 0.000000e+00 0
0.000000e+00 0.000000e+00 0
0.000000e+00 0.000000e+00 0
-2.350436e-17 0.000000e+00 0
0.000000e+00 0.000000e+00 0
0.000000e+00 0.000000e+00 0
0.000000e+00 0.000000e+00 0
0.000000e+00 0.000000e+00 0
0.000000e+00 0.000000e+00 0
0.000000e+00 0.000000e+00 0
0.000000e+00 0.000000e+00 0
-2.350485e-17 0.000000e+00 0
0.000000e+00 0.000000e+00 0
0.000000e+00 0.000000e+00 0
0.000000e+00 0.000000e+00 0
0.000000e+00 0.000000e+00 0
0.000000e+00 0.000000e+00 0
0.000000e+00 0.000000e+00 0
0.000000e+00 0.000000e+00 0
-2.350519e-17 0.000000e+00 0
0.000000e+00 0.000000e+00 0
0.000000e+00 0.000000e+00 0
0.000000e+00 0.000000e+00 0
0.000000e+00 0.000000e+00 0
0.000000e+00 0.000000e+00 0
0.000000e+00 0.000000e+00 0
0.000000e+00 0.000000e+00 0
-2.350550e-17 0.000000e+00 0
0.000000e+00 0.000000e+00 0
0.000000e+00 0.000000e+00 0
0.000000e+00 0.000000e+00 0
0.000000e+00 0.000000e+00 0
0.000000e+00 0.000000e+00 0
0.000000e+00 0.000000e+00 0
0.000000e+00 0.000000e+00 0
0.000000e+00 0.000000e+00 0
0.000000e+00 0.000000e+00 0
0.000000e+00 0.000000e+00 0
0.000000e+00 0.000000e+00 0
0.000000e+00 0.000000e+00 0
0.000000e+00 0.000000e+00 0
0.000000e+00 0.000000e+00 0
0.000000e+00 0.000000e+00 0
0.000000e+00 0.000000e+00 0
0.000000e+00 0.000000e+00 0
0.000000e+00 0.000000e+00 0
0.000000e+00 0.000000e+00 0
0.000000e+00 0.000000e+00 0
0.000000e+00 0.000000e+00 0
0.000000e+00 0.000000e+00 0
0.000000e+00 0.000000e+00 0
0.000000e+00 0.000000e+00 0
0.000000e+00 0.000000e+00 0
0.000000e+00 0.000000e+00 0
0.000000e+00 0.000000e+00 0
0.000000e+00 0.000000e+00 0
0.000000e+00 0.000000e+00 0
0.000000e+00 0.000000e+00 0
0.000000e+00 0.000000e+00 0
0.000000e+00 0.000000e+00 0
0.000000e+00 0.000000e+00 0
0.000000e+00 0.000000e+00 0
0.000000e+00 0.000000e+00 0
0.000000e+00 0.000000e+00 0
0.000000e+00 0.000000e+00 0
0.000000e+00 0.000000e+00 0
0.000000e+00 0.000000e+00 0
0.000000e+00 0.000000e+00 0
0.000000e+00 0.000000e+00 0
0.000000e+00 0.000000e+00 0
0.000000e+00 0.000000e+00 0
0.000000e+00 0.000000e+00 0
0.000000e+00 0.000000e+00 0
0.000000e+00 0.000000e+00 0
0.000000e+00 0.000000e+00 0
0.000000e+00 0.000000e+00 0
0.000000e+00 0.000000e+00 0
0.000000e+00 0.000000e+00 0
0.000000e+00 0.000000e+00 0
0.000000e+00 0.000000e+00 0
0.000000e+00 0.000000e+00 0
0.000000e+00 0.000000e+00 0
0.000000e+00 0.000000e+00 0
0.000000e+00 0.000000e+00 0
0.000000e+00 0.000000e+00 0
0.000000e+00 0.000000e+00 0
0.000000e+00 0.000000e+00 0
0.000000e+00 0.000000e+00 0
0.000000e+00 0.000000e+00 0
0.000000e+00 0.000000e+00 0
0.000000e+00 0.000000e+00 0
0.000000e+00 0.000000e+00 0
0.000000e+00 0.000000e+00 0
0.000000e+00 0.000000e+00 0
0.000000e+00 0.000000e+00 0
0.000000e+00 0.000000e+00 0
0.000000e+00 0.000000e+00 0
0.000000e+00 0.000000e+00 0
0.000000e+00 0.000000e+00 0
0.000000e+00 0.000000e+00 0
0.000000e+00 0.000000e+00 0
0.000000e+00 0.000000e+00 0
0.000000e+00 0.000000e+00 0
0.000000e+00 0.000000e+00 0
0.000000e+00 0.000000e+00 0
0.000000e+00 0.000000e+00 0
0.000000e+00 0.000000e+00 0
0.000000e+00 0.000000e+00 0
0.000000e+00 0.000000e+00 0
0.000000e+00 0.000000e+00 0
0.000000e+00 0.000000e+00 0
0.000000e+00 0.000000e+00 0
0.000000e+00 0.000000e+00 0
0.000000e+00 0.000000e+00 0
0.000000e+00 0.000000e+00 0
0.000000e+00 0.000000e+00 0
0.000000e+00 0.000000e+00 0
0.000000e+00 0.000000e+00 0
0.000000e+00 0.000000e+00 0
0.000000e+00 0.000000e+00 0
0.000000e+00 0.000000e+00 0
0.000000e+00 0.000000e+00 0
0.000000e+00 0.000000e+00 0
0.000000e+00 0.000000e+00 0
1.692398e+00 -3.964210e-08 0
1.692398e+00 -7.253689e-08 0
1.692397e+00 -1.080867e-07 0
1.692398e+00 -9.277836e-08 0
1.692398e+00 -5.416726e-08 0
1.692398e+00 -2.482214e-08 0
1.692398e+00 -2.345999e-08 0
1.692398e+00 -4.229235e-08 0
1.692398e+00 -5.818071e-08 0
1.692398e+00 -5.625069e-08 0
1.692398e+00 -3.713863e-08 0
1.692398e+00 -1.258708e-08 0
1.692398e+00 4.771008e-09 0
1.692398e+00 9.254786e-09 0
1.692397e+00 4.457353e-09 0
1.692397e+00 -1.113701e-09 0
1.692397e+00 -1.158475e-09 0
1.692397e+00 4.660192e-09 0
1.692397e+00 1.286174e-08 0
1.692397e+00 1.984333e-08 0
1.692397e+00 2.341029e-08 0
1.692397e+00 2.375130e-08 0
1.692397e+00 2.261341e-08 0
1.692397e+00 2.181568e-08 0
1.692397e+00 2.216371e-08 0
1.692397e+00 2.331067e-08 0
1.692397e+00 2.437629e-08 0
1.692397e+00 2.471369e-08 0
1.692397e+00 2.427377e-08 0
1.692397e+00 2.344037e-08 0
1.692397e+00 2.262710e-08 0
1.692397e+00 2.200012e-08 0
1.692397e+00 2.149514e-08 0
1.692397e+00 2.103037e-08 0
1.692397e+00 2.066762e-08 0
1.692397e+00 2.056519e-08 0
1.692397e+00 2.078481e-08 0
1.692397e+00 2.115832e-08 0
1.692397e+00 2.134644e-08 0
1.692397e+00 2.105563e-08 0
1.692397e+00 2.024961e-08 0
1.692397e+00 1.917282e-08 0
1.692397e+00 1.816510e-08 0
1.692397e+00 1.742175e-08 0
1.692397e+00 1.688559e-08 0
1.692397e+00 1.633696e-08 0
1.692397e+00 1.559751e-08 0
1.692397e+00 1.466990e-08 0
1.692397e+00 1.372896e-08 0
1.692397e+00 1.299171e-08 0
1.692397e+00 1.255889e-08 0
1.692397e+00 1.235810e-08 0
1.692397e+00 1.222020e-08 0
1.692397e+00 1.199947e-08 0
1.692397e+00 1.166259e-08 0
1.692397e+00 1.129216e-08 0
1.692397e+00 1.101050e-08 0
1.692397e+00 1.090270e-08 0
1.692397e+00 1.097651e-08 0
1.692397e+00 1.117686e-08 0
1.692397e+00 1.143241e-08 0
1.692397e+00 1.169712e-08 0
1.692397e+00 1.196448e-08 0
1.692397e+00 1.225228e-08 0
1.692397e+00 1.257265e-08 0
1.692397e+00 1.290895e-08 0
1.692397e+00 1.321791e-08 0
1.692397e+00 1.345171e-08 0
1.692397e+00 1.358348e-08 0
1.692397e+00 1.362384e-08 0
1.692397e+00 1.360419e-08 0
1.692397e+00 1.354960e-08 0
1.692397e+00 1.346626e-08 0
1.692397e+00 1.334756e-08 0
1.692397e+00 1.320365e-08 0
1.692397e+00 1.307809e-08 0
1.692397e+00 1.302350e-08 0
1.692397e+00 1.305658e-08 0
1.692397e+00 1.313658e-08 0
1.692397e+00 1.319350e-08 0
1.692397e+00 1.318969e-08 0
1.692397e+00 1.316076e-08 0
1.692397e+00 1.318962e-08 0
1.692397e+00 1.333114e-08 0
1.692397e+00 1.355855e-08 0
1.692397e+00 1.378497e-08 0
1.692397e+00 1.394037e-08 0
1.692397e+00 1.403069e-08 0
1.692397e+00 1.412321e-08 0
1.692397e+00 1.427150e-08 0
1.692397e+00 1.445390e-08 0
1.692397e+00 1.458724e-08 0
1.692397e+00 1.459958e-08 0
1.692397e+00 1.449524e-08 0
1.692397e+00 1.434863e-08 0
1.692397e+00 1.423297e-08 0
1.692397e+00 1.415844e-08 0
1.692397e+00 1.406530e-08 0
1.692397e+00 1.387940e-08 0
1.692397e+00 1.357804e-08 0
1.692397e+00 1.319981e-08 0
1.692397e+00 1.280760e-08 0
1.692397e+00 1.245035e-08 0
1.692397e+00 1.214351e-08 0
1.692397e+00 1.187684e-08 0
1.692397e+00 1.163558e-08 0
1.692397e+00 1.141023e-08 0
1.692397e+00 1.119647e-08 0
1.692397e+00 1.098897e-08 0
1.692397e+00 1.077923e-08 0
1.692397e+00 1.056285e-08 0
1.692397e+00 1.034467e-08 0
1.692397e+00 1.013213e-08 0
1.692397e+00 9.929989e-09 0
1.692397e+00 9.739520e-09 0
1.692397e+00 9.554004e-09 0
1.692397e+00 9.359022e-09 0
1.692397e+00 9.140575e-09 0
1.692397e+00 8.894509e-09 0
1.692397e+00 8.631442e-09 0
1.692397e+00 8.374436e-09 0
1.692397e+00 8.148189e-09 0
1.692397e+00 7.970273e-09 0
1.692397e+00 7.847886e-09 0
1.692397e+00 7.779803e-09 0
1.692397e+00 7.761252e-09 0
1.692397e+00 7.783655e-09 0
1.692397e+00 7.837219e-09 0
1.692397e+00 7.915449e-09 0
1.692397e+00 8.016866e-09 0
1.692397e+00 8.141349e-09 0
1.692397e+00 8.285919e-09 0
1.692397e+00 8.443252e-09 0
1.692397e+00 8.603786e-09 0
1.692397e+00 8.759514e-09 0
1.692397e+00 8.905011e-09 0
1.692397e+00 9.036362e-09 0
1.692397e+00 9.150779e-09 0
1.692397e+00 9.246922e-09 0
1.692397e+00 9.326204e-09 0
1.692397e+00 9.390350e-09 0
1.692397e+00 9.440340e-09 0
1.692397e+00 9.476272e-09 0
1.692397e+00 9.498463e-09 0
1.692397e+00 9.508174e-09 0
1.692397e+00 9.507676e-09 0
1.692397e+00 9.498577e-09 0
1.692397e+00 9.478890e-09 0
1.692397e+00 9.448843e-09 0
1.692397e+00 9.409243e-09 0
1.692397e+00 9.352740e-09 0
1.692397e+00 9.277479e-09 0
1.692397e+00 9.162944e-09 0
1.692397e+00 8.984680e-09 0
1.692397e+00 8.703760e-09 0
1.692397e+00 8.203656e-09 0
1.692397e+00 7.290144e-09 0
1.692397e+00 3.937062e-09 0
1.692397e+00 1.173446e-09 0
3.179494e+00 -3.468076e-08 0
3.179494e+00 -5.450315e-08 0
3.179494e+00 -6.813732e-08 0
3.179494e+00 -4.330796e-08 0
3.179494e+00 -1.193697e-08 0
3.179494e+00 -1.245502e-09 0
3.179494e+00 -1.589889e-08 0
3.179494e+00 -4.029081e-08 0
3.179494e+00 -5.424307e-08 0
3.179494e+00 -4.836100e-08 0
3.179494e+00 -2.795211e-08 0
3.179494e+00 -6.429167e-09 0
3.179494e+00 5.192834e-09 0
3.179494e+00 4.956000e-09 0
3.179494e+00 -1.119050e-09 0
3.179494e+00 -4.971003e-09 0
3.179494e+00 -2.374189e-09 0
3.179494e+00 5.606636e-09 0
3.179494e+00 1.476842e-08 0
3.179494e+00 2.113684e-08 0
3.179494e+00 2.341299e-08 0
3.179494e+00 2.288371e-08 0
3.179494e+00 2.186157e-08 0
3.179494e+00 2.198145e-08 0
3.179494e+00 2.342045e-08 0
3.179494e+00 2.527566e-08 0
3.179494e+00 2.653691e-08 0
3.179494e+00 2.683221e-08 0
3.179494e+00 2.648890e-08 0
3.179494e+00 2.607336e-08 0
3.179494e+00 2.589732e-08 0
3.179494e+00 2.587836e-08 0
3.179494e+00 2.577855e-08 0
3.179494e+00 2.552009e-08 0
3.179494e+00 2.527015e-08 0
3.179494e+00 2.524621e-08 0
3.179494e+00 2.545550e-08 0
3.179494e+00 2.561912e-08 0
3.179494e+00 2.535778e-08 0
3.179494e+00 2.448574e-08 0
3.179494e+00 2.315110e-08 0
3.179494e+00 2.170965e-08 0
3.179494e+00 2.045812e-08 0
3.179494e+00 1.944860e-08 0
3.179494e+00 1.851234e-08 0
3.179494e+00 1.745511e-08 0
3.179494e+00 1.624048e-08 0
3.179494e+00 1.501914e-08 0
3.179494e+00 1.399575e-08 0
3.179494e+00 1.325994e-08 0
3.179494e+00 1.273081e-08 0
3.179494e+00 1.223232e-08 0
3.179494e+00 1.161920e-08 0
3.179494e+00 1.086120e-08 0
3.179494e+00 1.003772e-08 0
3.179494e+00 9.267200e-09 0
3.179494e+00 8.641402e-09 0
3.179494e+00 8.204319e-09 0
3.179494e+00 7.967343e-09 0
3.179494e+00 7.934976e-09 0
3.179494e+00 8.107191e-09 0
3.179494e+00 8.467093e-09 0
3.179494e+00 8.978312e-09 0
3.179494e+00 9.585012e-09 0
3.179494e+00 1.021998e-08 0
3.179494e+00 1.082113e-08 0
3.179494e+00 1.134337e-08 0
3.179494e+00 1.176043e-08 0
3.179494e+00 1.206780e-08 0
3.179494e+00 1.227437e-08 0
3.179494e+00 1.238899e-08 0
3.179494e+00 1.241194e-08 0
3.179494e+00 1.234491e-08 0
3.179494e+00 1.221652e-08 0
3.179494e+00 1.208943e-08 0
3.179494e+00 1.203390e-08 0
3.179494e+00 1.208460e-08 0
3.179494e+00 1.221309e-08 0
3.179494e+00 1.234679e-08 0
3.179494e+00 1.243115e-08 0
3.179494e+00 1.248278e-08 0
3.179494e+00 1.258003e-08 0
3.179494e+00 1.279582e-08 0
3.179494e+00 1.313240e-08 0
3.179494e+00 1.351600e-08 0
3.179494e+00 1.385593e-08 0
3.179494e+00 1.411611e-08 0
3.179494e+00 1.433507e-08 0
3.179494e+00 1.457542e-08 0
3.179494e+00 1.485373e-08 0
3.179494e+00 1.511736e-08 0
3.179494e+00 1.528641e-08 0
3.179494e+00 1.532170e-08 0
3.179494e+00 1.525493e-08 0
3.179494e+00 1.515444e-08 0
3.179494e+00 1.506384e-08 0
3.179494e+00 1.496593e-08 0
3.179494e+00 1.480293e-08 0
3.179494e+00 1.452945e-08 0
3.179494e+00 1.414545e-08 0
3.179494e+00 1.369256e-08 0
3.179494e+00 1.322687e-08 0
3.179494e+00 1.278518e-08 0
3.179494e+00 1.237416e-08 0
3.179494e+00 1.198357e-08 0
3.179494e+00 1.160057e-08 0
3.179494e+00 1.121905e-08 0
3.179494e+00 1.083636e-08 0
3.179494e+00 1.045148e-08 0
3.179494e+00 1.006893e-08 0
3.179494e+00 9.694931e-09 0
3.179494e+00 9.332615e-09 0
3.179494e+00 8.984833e-09 0
3.179494e+00 8.655345e-09 0
3.179494e+00 8.340922e-09 0
3.179494e+00 8.028965e-09 0
3.179494e+00 7.702079e-09 0
3.179494e+00 7.348190e-09 0
3.179494e+00 6.970337e-09 0
3.179494e+00 6.586761e-09 0
3.179494e+00 6.226185e-09 0
3.179494e+00 5.917370e-09 0
3.179494e+00 5.680563e-09 0
3.179494e+00 5.526295e-09 0
3.179494e+00 5.459620e-09 0
3.179494e+00 5.479952e-09 0
3.179494e+00 5.580851e-09 0
3.179494e+00 5.752744e-09 0
3.179494e+00 5.985152e-09 0
3.179494e+00 6.267251e-09 0
3.179494e+00 6.587193e-09 0
3.179494e+00 6.930853e-09 0
3.179494e+00 7.283081e-09 0
3.179494e+00 7.631293e-09 0
3.179494e+00 7.965518e-09 0
3.179494e+00 8.277716e-09 0
3.179494e+00 8.561650e-09 0
3.179494e+00 8.812934e-09 0
3.179494e+00 9.030249e-09 0
3.179494e+00 9.216003e-09 0
3.179494e+00 9.372343e-09 0
3.179494e+00 9.501593e-09 0
3.179494e+00 9.605656e-09 0
3.179494e+00 9.686951e-09 0
3.179494e+00 9.748634e-09 0
3.179494e+00 9.793346e-09 0
3.179494e+00 9.821013e-09 0
3.179494e+00 9.828596e-09 0
3.179494e+00 9.816047e-09 0
3.179494e+00 9.776581e-09 0
3.179494e+00 9.701529e-09 0
3.179494e+00 9.580356e-09 0
3.179494e+00 9.381544e-09 0
3.179494e+00 9.069054e-09 0
3.179494e+00 8.565647e-09 0
3.179494e+00 7.707215e-09 0
3.179494e+00 6.236612e-09 0
3.179494e+00 3.275235e-09 0
3.179494e+00 1.241325e-09 0
4.478016e+00 -2.374806e-08 0
4.478016e+00 -2.885423e-08 0
4.478016e+00 -1.976637e-08 0
4.478016e+00 1.181239e-08 0
4.478016e+00 3.294428e-08 0
4.478016e+00 2.489469e-08 0
4.478016e+00 -4.375392e-09 0
4.478016e+00 -3.278169e-08 0
4.478016e+00 -4.242670e-08 0
4.478016e+00 -3.098399e-08 0
4.478016e+00 -9.821299e-09 0
4.478016e+00 6.584858e-09 0
4.478016e+00 1.059366e-08 0
4.478016e+00 4.546610e-09 0
4.478016e+00 -3.414192e-09 0
4.478016e+00 -6.011973e-09 0
4.478016e+00 -1.063921e-09 0
4.478016e+00 8.344562e-09 0
4.478016e+00 1.710446e-08 0
4.478016e+00 2.185445e-08 0
4.478016e+00 2.253977e-08 0
4.478016e+00 2.146103e-08 0
4.478016e+00 2.113277e-08 0
4.478016e+00 2.261837e-08 0
4.478016e+00 2.526670e-08 0
4.478016e+00 2.765137e-08 0
4.478016e+00 2.877484e-08 0
4.478016e+00 2.864074e-08 0
4.478016e+00 2.796447e-08 0
4.478016e+00 2.744996e-08 0
4.478016e+00 2.727517e-08 0
4.478016e+00 2.713412e-08 0
4.478016e+00 2.666934e-08 0
4.478016e+00 2.585024e-08 0
4.478016e+00 2.498472e-08 0
4.478016e+00 2.440413e-08 0
4.478016e+00 2.414260e-08 0
4.478016e+00 2.389974e-08 0
4.478016e+00 2.330270e-08 0
4.478016e+00 2.221977e-08 0
4.478016e+00 2.085429e-08 0
4.478016e+00 1.956751e-08 0
4.478016e+00 1.859161e-08 0
4.478016e+00 1.787290e-08 0
4.478016e+00 1.716784e-08 0
4.478016e+00 1.628189e-08 0
4.478016e+00 1.522812e-08 0
4.478016e+00 1.418805e-08 0
4.478016e+00 1.334301e-08 0
4.478016e+00 1.272713e-08 0
4.478016e+00 1.220657e-08 0
4.478016e+00 1.158963e-08 0
4.478016e+00 1.075912e-08 0
4.478016e+00 9.728121e-09 0
4.478016e+00 8.595536e-09 0
4.478016e+00 7.461747e-09 0
4.478016e+00 6.391658e-09 0
4.478016e+00 5.416251e-09 0
4.478016e+00 4.558591e-09 0
4.478016e+00 3.892526e-09 0
4.478016e+00 3.517910e-09 0
4.478016e+00 3.485880e-09 0
4.478016e+00 3.788682e-09 0
4.478016e+00 4.362243e-09 0
4.478016e+00 5.090716e-09 0
4.478016e+00 5.860753e-09 0
4.478016e+00 6.603896e-09 0
4.478016e+00 7.287245e-09 0
4.478016e+00 7.906024e-09 0
4.478016e+00 8.463261e-09 0
4.478016e+00 8.948898e-09 0
4.478016e+00 9.342508e-09 0
4.478016e+00 9.639546e-09 0
4.478016e+00 9.876076e-09 0
4.478016e+00 1.012349e-08 0
4.478016e+00 1.044987e-08 0
4.478016e+00 1.086799e-08 0
4.478016e+00 1.132275e-08 0
4.478016e+00 1.173706e-08 0
4.478016e+00 1.207877e-08 0
4.478016e+00 1.239116e-08 0
4.478016e+00 1.275775e-08 0
4.478016e+00 1.322865e-08 0
4.478016e+00 1.377259e-08 0
4.478016e+00 1.430032e-08 0
4.478016e+00 1.473963e-08 0
4.478016e+00 1.509131e-08 0
4.478016e+00 1.541144e-08 0
4.478016e+00 1.574321e-08 0
4.478016e+00 1.606546e-08 0
4.478016e+00 1.630436e-08 0
4.478016e+00 1.639658e-08 0
4.478016e+00 1.634184e-08 0
4.478016e+00 1.619680e-08 0
4.478016e+00 1.602046e-08 0
4.478016e+00 1.582290e-08 0
4.478016e+00 1.556212e-08 0
4.478016e+00 1.518568e-08 0
4.478016e+00 1.467610e-08 0
4.478016e+00 1.406284e-08 0
4.478016e+00 1.340137e-08 0
4.478016e+00 1.273747e-08 0
4.478016e+00 1.209038e-08 0
4.478016e+00 1.146027e-08 0
4.478016e+00 1.084241e-08 0
4.478016e+00 1.023658e-08 0
4.478016e+00 9.643146e-09 0
4.478016e+00 9.064956e-09 0
4.478016e+00 8.509149e-09 0
4.478016e+00 7.980659e-09 0
4.478016e+00 7.482503e-09 0
4.478016e+00 7.020282e-09 0
4.478016e+00 6.599348e-09 0
4.478016e+00 6.216177e-09 0
4.478016e+00 5.856776e-09 0
4.478016e+00 5.496970e-09 0
4.478016e+00 5.111988e-09 0
4.478016e+00 4.688998e-09 0
4.478016e+00 4.230773e-09 0
4.478016e+00 3.756590e-09 0
4.478016e+00 3.296795e-09 0
4.478016e+00 2.885708e-09 0
4.478016e+00 2.553682e-09 0
4.478016e+00 2.323434e-09 0
4.478016e+00 2.207556e-09 0
4.478016e+00 2.213354e-09 0
4.478016e+00 2.337960e-09 0
4.478016e+00 2.567313e-09 0
4.478016e+00 2.886020e-09 0
4.478016e+00 3.274890e-09 0
4.478016e+00 3.708479e-09 0
4.478016e+00 4.160827e-09 0
4.478016e+00 4.612297e-09 0
4.478016e+00 5.047840e-09 0
4.478016e+00 5.456484e-09 0
4.478016e+00 5.831501e-09 0
4.478016e+00 6.167176e-09 0
4.478016e+00 6.459573e-09 0
4.478016e+00 6.709265e-09 0
4.478016e+00 6.918817e-09 0
4.478016e+00 7.091463e-09 0
4.478016e+00 7.231353e-09 0
4.478016e+00 7.342645e-09 0
4.478016e+00 7.429669e-09 0
4.478016e+00 7.497743e-09 0
4.478016e+00 7.550105e-09 0
4.478016e+00 7.585743e-09 0
4.478016e+00 7.604263e-09 0
4.478016e+00 7.602609e-09 0
4.478016e+00 7.570726e-09 0
4.478016e+00 7.500976e-09 0
4.478016e+00 7.371225e-09 0
4.478016e+00 7.147116e-09 0
4.478016e+00 6.784091e-09 0
4.478016e+00 6.186188e-09 0
4.478016e+00 5.186395e-09 0
4.478016e+00 3.602824e-09 0
4.478016e+00 1.392112e-09 0
4.478016e+00 1.390532e-10 0
5.604284e+00 -4.491136e-09 0
5.604284e+00 6.093600e-09 0
5.604284e+00 3.487551e-08 0
5.604285e+00 6.479918e-08 0
5.604284e+00 6.975785e-08 0
5.604284e+00 4.346102e-08 0
5.604284e+00 5.290318e-09 0
5.604284e+00 -2.052993e-08 0
5.604284e+00 -2.228128e-08 0
5.604284e+00 -5.756957e-09 0
5.604284e+00 1.334851e-08 0
5.604284e+00 2.185338e-08 0
5.604284e+00 1.711436e-08 0
5.604284e+00 5.834610e-09 0
5.604284e+00 -2.768198e-09 0
5.604284e+00 -3.204060e-09 0
5.604284e+00 3.812113e-09 0
5.604284e+00 1.329221e-08 0
5.604284e+00 2.013701e-08 0
5.604284e+00 2.231001e-08 0
5.604284e+00 2.121889e-08 0
5.604284e+00 1.982767e-08 0
5.604284e+00 2.030905e-08 0
5.604284e+00 2.284960e-08 0
5.604284e+00 2.607653e-08 0
5.604284e+00 2.840781e-08 0
5.604284e+00 2.917514e-08 0
5.604284e+00 2.880674e-08 0
5.604284e+00 2.818233e-08 0
5.604284e+00 2.784047e-08 0
5.604284e+00 2.767393e-08 0
5.604284e+00 2.723085e-08 0
5.604284e+00 2.623821e-08 0
5.604284e+00 2.486403e-08 0
5.604284e+00 2.353381e-08 0
5.604284e+00 2.253640e-08 0
5.604284e+00 2.178698e-08 0
5.604284e+00 2.093740e-08 0
5.604284e+00 1.971311e-08 0
5.604284e+00 1.815751e-08 0
5.604284e+00 1.658803e-08 0
5.604284e+00 1.532092e-08 0
5.604284e+00 1.442164e-08 0
5.604284e+00 1.370123e-08 0
5.604284e+00 1.292127e-08 0
5.604285e+00 1.200002e-08 0
5.604285e+00 1.105935e-08 0
5.604285e+00 1.029484e-08 0
5.604285e+00 9.793164e-09 0
5.604285e+00 9.451965e-09 0
5.604285e+00 9.064116e-09 0
5.604285e+00 8.461093e-09 0
5.604285e+00 7.587572e-09 0
5.604285e+00 6.485271e-09 0
5.604285e+00 5.216820e-09 0
5.604285e+00 3.777418e-09 0
5.604285e+00 2.158909e-09 0
5.604285e+00 5.133881e-10 0
5.604285e+00 -8.350082e-10 0
5.604285e+00 -1.632554e-09 0
5.604285e+00 -1.841187e-09 0
5.604285e+00 -1.555803e-09 0
5.604285e+00 -9.515839e-10 0
5.604285e+00 -2.179457e-10 0
5.604285e+00 5.378780e-10 0
5.604285e+00 1.276174e-09 0
5.604285e+00 1.967814e-09 0
5.604285e+00 2.613514e-09 0
5.604285e+00 3.234398e-09 0
5.604285e+00 3.848757e-09 0
5.604285e+00 4.452940e-09 0
5.604285e+00 5.023116e-09 0