<?xml version="1.0"?>
<VTKFile type="StructuredGrid">
<StructuredGrid WholeExtent="0 158 0 30 0 0 ">
<Piece Extent="0 158 0 30 0 0 ">
<Points>
<DataArray type="Float64" format="ascii" NumberOfComponents="3">
0.000000e+00 0.000000e+00 0.000000e+00
3.164557e-02 0.000000e+00 0.000000e+00
6.329114e-02 0.000000e+00 0.000000e+00
9.493671e-02 0.000000e+00 0.000000e+00
1.265823e-01 0.000000e+00 0.000000e+00
1.582278e-01 0.000000e+00 0.000000e+00
1.898734e-01 0.000000e+00 0.000000e+00
2.215190e-01 0.000000e+00 0.000000e+00
2.531646e-01 0.000000e+00 0.000000e+00
2.848101e-01 0.000000e+00 0.000000e+00
3.164557e-01 0.000000e+00 0.000000e+00
3.481013e-01 0.000000e+00 0.000000e+00
3.797468e-01 0.000000e+00 0.000000e+00
4.113924e-01 0.000000e+00 0.000000e+00
4.430380e-01 0.000000e+00 0.000000e+00
4.746835e-01 0.000000e+00 0.000000e+00
5.063291e-01 0.000000e+00 0.000000e+00
5.379747e-01 0.000000e+00 0.000000e+00
5.696203e-01 0.000000e+00 0.000000e+00
6.012658e-01 0.000000e+00 0.000000e+00
6.329114e-01 0.000000e+00 0.000000e+00
6.645570e-01 0.000000e+00 0.000000e+00
6.962025e-01 0.000000e+00 0.000000e+00
7.278481e-01 0.000000e+00 0.000000e+00
7.594937e-01 0.000000e+00 0.000000e+00
7.911392e-01 0.000000e+00 0.000000e+00
8.227848e-01 0.000000e+00 0.000000e+00
8.544304e-01 0.000000e+00 0.000000e+00
8.860759e-01 0.000000e+00 0.000000e+00
9.177215e-01 0.000000e+00 0.000000e+00
9.493671e-01 0.000000e+00 0.000000e+00
9.810127e-01 0.000000e+00 0.000000e+00
1.012658e+00 0.000000e+00 0.000000e+00
1.044304e+00 0.000000e+00 0.000000e+00
1.075949e+00 0.000000e+00 0.000000e+00
1.107595e+00 0.000000e+00 0.000000e+00
1.139241e+00 0.000000e+00 0.000000e+00
1.170886e+00 0.000000e+00 0.000000e+00
1.202532e+00 0.000000e+00 0.000000e+00
1.234177e+00 0.000000e+00 0.000000e+00
1.265823e+00 0.000000e+00 0.000000e+00
1.297468e+00 0.000000e+00 0.000000e+00
1.329114e+00 0.000000e+00 0.000000e+00
1.360759e+00 0.000000e+00 0.000000e+00
1.392405e+00 0.000000e+00 0.000000e+00
1.424051e+00 0.000000e+00 0.000000e+00
1.455696e+00 0.000000e+00 0.000000e+00
1.487342e+00 0.000000e+00 0.000000e+00
1.518987e+00 0.000000e+00 0.000000e+00
1.550633e+00 0.000000e+00 0.000000e+00
1.582278e+00 0.000000e+00 0.000000e+00
1.613924e+00 0.000000e+00 0.000000e+00
1.645570e+00 0.000000e+00 0.000000e+00
1.677215e+00 0.000000e+00 0.000000e+00
1.708861e+00 0.000000e+00 0.000000e+00
1.740506e+00 0.000000e+00 0.000000e+00
1.772152e+00 0.000000e+00 0.000000e+00
1.803797e+00 0.000000e+00 0.000000e+00
1.835443e+00 0.000000e+00 0.000000e+00
1.867089e+00 0.000000e+00 0.000000e+00
1.898734e+00 0.000000e+00 0.000000e+00
1.930380e+00 0.000000e+00 0.000000e+00
1.962025e+00 0.000000e+00 0.000000e+00
1.993671e+00 0.000000e+00 0.000000e+00
2.025316e+00 0.000000e+00 0.000000e+00
2.056962e+00 0.000000e+00 0.000000e+00
2.088608e+00 0.000000e+00 0.000000e+00
2.120253e+00 0.000000e+00 0.000000e+00
2.151899e+00 0.000000e+00 0.000000e+00
2.183544e+00 0.000000e+00 0.000000e+00
2.215190e+00 0.000000e+00 0.000000e+00
2.246835e+00 0.000000e+00 0.000000e+00
2.278481e+00 0.000000e+00 0.000000e+00
2.310127e+00 0.000000e+00 0.000000e+00
2.341772e+00 0.000000e+00 0.000000e+00
2.373418e+00 0.000000e+00 0.000000e+00
2.405063e+00 0.000000e+00 0.000000e+00
2.436709e+00 0.000000e+00 0.000000e+00
2.468354e+00 0.000000e+00 0.000000e+00
2.500000e+00 0.000000e+00 0.000000e+00
2.531646e+00 0.000000e+00 0.000000e+00
2.563291e+00 0.000000e+00 0.000000e+00
2.594937e+00 0.000000e+00 0.000000e+00
2.626582e+00 0.000000e+00 0.000000e+00
2.658228e+00 0.000000e+00 0.000000e+00
2.689873e+00 0.000000e+00 0.000000e+00
2.721519e+00 0.000000e+00 0.000000e+00
2.753165e+00 0.000000e+00 0.000000e+00
2.784810e+00 0.000000e+00 0.000000e+00
2.816456e+00 0.000000e+00 0.000000e+00
2.848101e+00 0.000000e+00 0.000000e+00
2.879747e+00 0.000000e+00 0.000000e+00
2.911392e+00 0.000000e+00 0.000000e+00
2.943038e+00 0.000000e+00 0.000000e+00
2.974684e+00 0.000000e+00 0.000000e+00
3.006329e+00 0.000000e+00 0.000000e+00
3.037975e+00 0.000000e+00 0.000000e+00
3.069620e+00 0.000000e+00 0.000000e+00
3.101266e+00 0.000000e+00 0.000000e+00
3.132911e+00 0.000000e+00 0.000000e+00
3.164557e+00 0.000000e+00 0.000000e+00
3.196203e+00 0.000000e+00 0.000000e+00
3.227848e+00 0.000000e+00 0.000000e+00
3.259494e+00 0.000000e+00 0.000000e+00
3.291139e+00 0.000000e+00 0.000000e+00
3.322785e+00 0.000000e+00 0.000000e+00
3.354430e+00 0.000000e+00 0.000000e+00
3.386076e+00 0.000000e+00 0.000000e+00
3.417722e+00 0.000000e+00 0.000000e+00
3.449367e+00 0.000000e+00 0.000000e+00
3.481013e+00 0.000000e+00 0.000000e+00
3.512658e+00 0.000000e+00 0.000000e+00
3.544304e+00 0.000000e+00 0.000000e+00
3.575949e+00 0.000000e+00 0.000000e+00
3.607595e+00 0.000000e+00 0.000000e+00
3.639241e+00 0.000000e+00 0.000000e+00
3.670886e+00 0.000000e+00 0.000000e+00
3.702532e+00 0.000000e+00 0.000000e+00
3.734177e+00 0.000000e+00 0.000000e+00
3.765823e+00 0.000000e+00 0.000000e+00
3.797468e+00 0.000000e+00 0.000000e+00
3.829114e+00 0.000000e+00 0.000000e+00
3.860759e+00 0.000000e+00 0.000000e+00
3.892405e+00 0.000000e+00 0.000000e+00
3.924051e+00 0.000000e+00 0.000000e+00
3.955696e+00 0.000000e+00 0.000000e+00
3.987342e+00 0.000000e+00 0.000000e+00
4.018987e+00 0.000000e+00 0.000000e+00
4.050633e+00 0.000000e+00 0.000000e+00
4.082278e+00 0.000000e+00 0.000000e+00
4.113924e+00 0.000000e+00 0.000000e+00
4.145570e+00 0.000000e+00 0.000000e+00
4.177215e+00 0.000000e+00 0.000000e+00
4.208861e+00 0.000000e+00 0.000000e+00
4.240506e+00 0.000000e+00 0.000000e+00
4.272152e+00 0.000000e+00 0.000000e+00
4.303797e+00 0.000000e+00 0.000000e+00
4.335443e+00 0.000000e+00 0.000000e+00
4.367089e+00 0.000000e+00 0.000000e+00
4.398734e+00 0.000000e+00 0.000000e+00
4.430380e+00 0.000000e+00 0.000000e+00
4.462025e+00 0.000000e+00 0.000000e+00
4.493671e+00 0.000000e+00 0.000000e+00
4.525316e+00 0.000000e+00 0.000000e+00
4.556962e+00 0.000000e+00 0.000000e+00
4.588608e+00 0.000000e+00 0.000000e+00
4.620253e+00 0.000000e+00 0.000000e+00
4.651899e+00 0.000000e+00 0.000000e+00
4.683544e+00 0.000000e+00 0.000000e+00
4.715190e+00 0.000000e+00 0.000000e+00
4.746835e+00 0.000000e+00 0.000000e+00
4.778481e+00 0.000000e+00 0.000000e+00
4.810127e+00 0.000000e+00 0.000000e+00
4.841772e+00 0.000000e+00 0.000000e+00
4.873418e+00 0.000000e+00 0.000000e+00
4.905063e+00 0.000000e+00 0.000000e+00
4.936709e+00 0.000000e+00 0.000000e+00
4.968354e+00 0.000000e+00 0.000000e+00
5.000000e+00 0.000000e+00 0.000000e+00
0.000000e+00 3.333333e-02 0.000000e+00
3.164557e-02 3.333333e-02 0.000000e+00
6.329114e-02 3.333333e-02 0.000000e+00
9.493671e-02 3.333333e-02 0.000000e+00
1.265823e-01 3.333333e-02 0.000000e+00
1.582278e-01 3.333333e-02 0.000000e+00
1.898734e-01 3.333333e-02 0.000000e+00
2.215190e-01 3.333333e-02 0.000000e+00
2.531646e-01 3.333333e-02 0.000000e+00
2.848101e-01 3.333333e-02 0.000000e+00
3.164557e-01 3.333333e-02 0.000000e+00
3.481013e-01 3.333333e-02 0.000000e+00
3.797468e-01 3.333333e-02 0.000000e+00
4.113924e-01 3.333333e-02 0.000000e+00
4.430380e-01 3.333333e-02 0.000000e+00
4.746835e-01 3.333333e-02 0.000000e+00
5.063291e-01 3.333333e-02 0.000000e+00
5.379747e-01 3.333333e-02 0.000000e+00
5.696203e-01 3.333333e-02 0.000000e+00
6.012658e-01 3.333333e-02 0.000000e+00
6.329114e-01 3.333333e-02 0.000000e+00
6.645570e-01 3.333333e-02 0.000000e+00
6.962025e-01 3.333333e-02 0.000000e+00
7.278481e-01 3.333333e-02 0.000000e+00
7.594937e-01 3.333333e-02 0.000000e+00
7.911392e-01 3.333333e-02 0.000000e+00
8.227848e-01 3.333333e-02 0.000000e+00
8.544304e-01 3.333333e-02 0.000000e+00
8.860759e-01 3.333333e-02 0.000000e+00
9.177215e-01 3.333333e-02 0.000000e+00
9.493671e-01 3.333333e-02 0.000000e+00
9.810127e-01 3.333333e-02 0.000000e+00
1.012658e+00 3.333333e-02 0.000000e+00
1.044304e+00 3.333333e-02 0.000000e+00
1.075949e+00 3.333333e-02 0.000000e+00
1.107595e+00 3.333333e-02 0.000000e+00
1.139241e+00 3.333333e-02 0.000000e+00
1.170886e+00 3.333333e-02 0.000000e+00
1.202532e+00 3.333333e-02 0.000000e+00
1.234177e+00 3.333333e-02 0.000000e+00
1.265823e+00 3.333333e-02 0.000000e+00
1.297468e+00 3.333333e-02 0.000000e+00
1.329114e+00 3.333333e-02 0.000000e+00
1.360759e+00 3.333333e-02 0.000000e+00
1.392405e+00 3.333333e-02 0.000000e+00
1.424051e+00 3.333333e-02 0.000000e+00
1.455696e+00 3.333333e-02 0.000000e+00
1.487342e+00 3.333333e-02 0.000000e+00
1.518987e+00 3.333333e-02 0.000000e+00
1.550633e+00 3.333333e-02 0.000000e+00
1.582278e+00 3.333333e-02 0.000000e+00
1.613924e+00 3.333333e-02 0.000000e+00
1.645570e+00 3.333333e-02 0.000000e+00
1.677215e+00 3.333333e-02 0.000000e+00
1.708861e+00 3.333333e-02 0.000000e+00
1.740506e+00 3.333333e-02 0.000000e+00
1.772152e+00 3.333333e-02 0.000000e+00
1.803797e+00 3.333333e-02 0.000000e+00
1.835443e+00 3.333333e-02 0.000000e+00
1.867089e+00 3.333333e-02 0.000000e+00
1.898734e+00 3.333333e-02 0.000000e+00
1.930380e+00 3.333333e-02 0.000000e+00
1.962025e+00 3.333333e-02 0.000000e+00
1.993671e+00 3.333333e-02 0.000000e+00
2.025316e+00 3.333333e-02 0.000000e+00
2.056962e+00 3.333333e-02 0.000000e+00
2.088608e+00 3.333333e-02 0.000000e+00
2.120253e+00 3.333333e-02 0.000000e+00
2.151899e+00 3.333333e-02 0.000000e+00
2.183544e+00 3.333333e-02 0.000000e+00
2.215190e+00 3.333333e-02 0.000000e+00
2.246835e+00 3.333333e-02 0.000000e+00
2.278481e+00 3.333333e-02 0.000000e+00
2.310127e+00 3.333333e-02 0.000000e+00
2.341772e+00 3.333333e-02 0.000000e+00
2.373418e+00 3.333333e-02 0.000000e+00
2.405063e+00 3.333333e-02 0.000000e+00
2.436709e+00 3.333333e-02 0.000000e+00
2.468354e+00 3.333333e-02 0.000000e+00
2.500000e+00 3.333333e-02 0.000000e+00
2.531646e+00 3.333333e-02 0.000000e+00
2.563291e+00 3.333333e-02 0.000000e+00
2.594937e+00 3.333333e-02 0.000000e+00
2.626582e+00 3.333333e-02 0.000000e+00
2.658228e+00 3.333333e-02 0.000000e+00
2.689873e+00 3.333333e-02 0.000000e+00
2.721519e+00 3.333333e-02 0.000000e+00
2.753165e+00 3.333333e-02 0.000000e+00
2.784810e+00 3.333333e-02 0.000000e+00
2.816456e+00 3.333333e-02 0.000000e+00
2.848101e+00 3.333333e-02 0.000000e+00
2.879747e+00 3.333333e-02 0.000000e+00
[...]
<PointData>
<DataArray Name="Velocity" type="Float64" format="ascii" NumberOfComponents="3">
0.000000e+00 0.000000e+00 0
0.000000e+00 0.000000e+00 0
0.000000e+00 0.000000e+00 0
0.000000e+00 0.000000e+00 0
0.000000e+00 0.000000e+00 0
0.000000e+00 0.000000e+00 0
0.000000e+00 0.000000e+00 0
0.000000e+00 0.000000e+00 0
0.000000e+00 0.000000e+00 0
0.000000e+00 0.000000e+00 0
0.000000e+00 0.000000e+00 0
0.000000e+00 0.000000e+00 0
0.000000e+00 0.000000e+00 0
0.000000e+00 0.000000e+00 0
0.000000e+00 0.000000e+00 0
0.000000e+00 0.000000e+00 0
0.000000e+00 0.000000e+00 0
0.000000e+00 0.000000e+00 0
0.000000e+00 0.000000e+00 0
-2.529553e-17 0.000000e+00 0
0.000000e+00 0.000000e+00 0
0.000000e+00 0.000000e+00 0
0.000000e+00 0.000000e+00 0
-2.529563e-17 0.000000e+00 0
0.000000e+00 0.000000e+00 0
0.000000e+00 0.000000e+00 0
0.000000e+00 0.000000e+00 0
-2.529568e-17 0.000000e+00 0
0.000000e+00 0.000000e+00 0
0.000000e+00 0.000000e+00 0
0.000000e+00 0.000000e+00 0
-2.529574e-17 0.000000e+00 0
0.000000e+00 0.000000e+00 0
0.000000e+00 0.000000e+00 0
0.000000e+00 0.000000e+00 0
0.000000e+00 0.000000e+00 0
0.000000e+00 0.000000e+00 0
0.000000e+00 0.000000e+00 0
-5.059162e-17 0.000000e+00 0
0.000000e+00 0.000000e+00 0
0.000000e+00 0.000000e+00 0
0.000000e+00 0.000000e+00 0
0.000000e+00 0.000000e+00 0
0.000000e+00 0.000000e+00 0
0.000000e+00 0.000000e+00 0
0.000000e+00 0.000000e+00 0
-5.059180e-17 0.000000e+00 0
0.000000e+00 0.000000e+00 0
0.000000e+00 0.000000e+00 0
0.000000e+00 0.000000e+00 0
0.000000e+00 0.000000e+00 0
0.000000e+00 0.000000e+00 0
0.000000e+00 0.000000e+00 0
0.000000e+00 0.000000e+00 0
-5.059200e-17 0.000000e+00 0
0.000000e+00 0.000000e+00 0
0.000000e+00 0.000000e+00 0
0.000000e+00 0.000000e+00 0
0.000000e+00 0.000000e+00 0
0.000000e+00 0.000000e+00 0
0.000000e+00 0.000000e+00 0
0.000000e+00 0.000000e+00 0
-5.059218e-17 0.000000e+00 0
0.000000e+00 0.000000e+00 0
0.000000e+00 0.000000e+00 0
0.000000e+00 0.000000e+00 0
0.000000e+00 0.000000e+00 0
0.000000e+00 0.000000e+00 0
0.000000e+00 0.000000e+00 0
0.000000e+00 0.000000e+00 0
0.000000e+00 0.000000e+00 0
0.000000e+00 0.000000e+00 0
0.000000e+00 0.000000e+00 0
0.000000e+00 0.000000e+00 0
0.000000e+00 0.000000e+00 0
0.000000e+00 0.000000e+00 0
0.000000e+00 0.000000e+00 0
0.000000e+00 0.000000e+00 0
0.000000e+00 0.000000e+00 0
0.000000e+00 0.000000e+00 0
0.000000e+00 0.000000e+00 0
0.000000e+00 0.000000e+00 0
0.000000e+00 0.000000e+00 0
0.000000e+00 0.000000e+00 0
0.000000e+00 0.000000e+00 0
0.000000e+00 0.000000e+00 0
0.000000e+00 0.000000e+00 0
0.000000e+00 0.000000e+00 0
0.000000e+00 0.000000e+00 0
0.000000e+00 0.000000e+00 0
0.000000e+00 0.000000e+00 0
0.000000e+00 0.000000e+00 0
0.000000e+00 0.000000e+00 0
0.000000e+00 0.000000e+00 0
0.000000e+00 0.000000e+00 0
0.000000e+00 0.000000e+00 0
0.000000e+00 0.000000e+00 0
0.000000e+00 0.000000e+00 0
0.000000e+00 0.000000e+00 0
0.000000e+00 0.000000e+00 0
0.000000e+00 0.000000e+00 0
0.000000e+00 0.000000e+00 0
0.000000e+00 0.000000e+00 0
0.000000e+00 0.000000e+00 0
0.000000e+00 0.000000e+00 0
0.000000e+00 0.000000e+00 0
0.000000e+00 0.000000e+00 0
0.000000e+00 0.000000e+00 0
0.000000e+00 0.000000e+00 0
0.000000e+00 0.000000e+00 0
0.000000e+00 0.000000e+00 0
0.000000e+00 0.000000e+00 0
0.000000e+00 0.000000e+00 0
0.000000e+00 0.000000e+00 0
0.000000e+00 0.000000e+00 0
0.000000e+00 0.000000e+00 0
0.000000e+00 0.000000e+00 0
0.000000e+00 0.000000e+00 0
0.000000e+00 0.000000e+00 0
0.000000e+00 0.000000e+00 0
0.000000e+00 0.000000e+00 0
0.000000e+00 0.000000e+00 0
0.000000e+00 0.000000e+00 0
0.000000e+00 0.000000e+00 0
0.000000e+00 0.000000e+00 0
0.000000e+00 0.000000e+00 0
0.000000e+00 0.000000e+00 0
0.000000e+00 0.000000e+00 0
0.000000e+00 0.000000e+00 0
0.000000e+00 0.000000e+00 0
0.000000e+00 0.000000e+00 0
0.000000e+00 0.000000e+00 0
0.000000e+00 0.000000e+00 0
0.000000e+00 0.000000e+00 0
0.000000e+00 0.000000e+00 0
0.000000e+00 0.000000e+00 0
0.000000e+00 0.000000e+00 0
0.000000e+00 0.000000e+00 0
0.000000e+00 0.000000e+00 0
0.000000e+00 0.000000e+00 0
0.000000e+00 0.000000e+00 0
0.000000e+00 0.000000e+00 0
0.000000e+00 0.000000e+00 0
0.000000e+00 0.000000e+00 0
0.000000e+00 0.000000e+00 0
0.000000e+00 0.000000e+00 0
0.000000e+00 0.000000e+00 0
0.000000e+00 0.000000e+00 0
0.000000e+00 0.000000e+00 0
0.000000e+00 0.000000e+00 0
0.000000e+00 0.000000e+00 0
0.000000e+00 0.000000e+00 0
0.000000e+00 0.000000e+00 0
0.000000e+00 0.000000e+00 0
0.000000e+00 0.000000e+00 0
0.000000e+00 0.000000e+00 0
0.000000e+00 0.000000e+00 0
0.000000e+00 0.000000e+00 0
0.000000e+00 0.000000e+00 0
2.986055e+00 -1.841569e-09 0
2.986055e+00 -4.303433e-09 0
2.986055e+00 -2.602159e-10 0
2.986055e+00 1.434093e-08 0
2.986055e+00 2.445634e-08 0
2.986055e+00 1.969891e-08 0
2.986055e+00 1.332487e-09 0
2.986055e+00 -1.823621e-08 0
2.986055e+00 -2.573365e-08 0
2.986055e+00 -1.807027e-08 0
2.986055e+00 -1.925413e-09 0
2.986055e+00 1.278799e-08 0
2.986055e+00 1.875487e-08 0
2.986055e+00 1.520428e-08 0
2.986055e+00 7.386498e-09 0
2.986055e+00 1.821656e-09 0
2.986055e+00 1.669884e-09 0
2.986055e+00 5.948283e-09 0
2.986055e+00 1.149992e-08 0
2.986055e+00 1.509922e-08 0
2.986055e+00 1.553124e-08 0
2.986055e+00 1.389060e-08 0
2.986055e+00 1.184117e-08 0
2.986055e+00 1.037156e-08 0
2.986055e+00 9.575045e-09 0
2.986055e+00 9.137517e-09 0
2.986055e+00 8.900744e-09 0
2.986055e+00 8.923266e-09 0
2.986055e+00 9.160985e-09 0
2.986055e+00 9.261305e-09 0
2.986055e+00 8.771787e-09 0
2.986055e+00 7.587595e-09 0
2.986055e+00 6.158145e-09 0
2.986055e+00 5.204732e-09 0
2.986055e+00 5.183676e-09 0
2.986055e+00 5.942071e-09 0
2.986055e+00 6.847646e-09 0
2.986055e+00 7.277354e-09 0
2.986055e+00 7.047388e-09 0
2.986055e+00 6.464265e-09 0
2.986055e+00 6.016056e-09 0
2.986055e+00 6.006689e-09 0
2.986055e+00 6.415929e-09 0
2.986055e+00 7.018345e-09 0
2.986055e+00 7.584299e-09 0
2.986055e+00 7.974811e-09 0
2.986055e+00 8.113143e-09 0
2.986055e+00 7.951950e-09 0
2.986055e+00 7.519405e-09 0
2.986055e+00 6.991288e-09 0
2.986055e+00 6.658298e-09 0
2.986055e+00 6.742914e-09 0
2.986055e+00 7.192993e-09 0
2.986055e+00 7.655402e-09 0
2.986055e+00 7.708176e-09 0
2.986055e+00 7.196240e-09 0
2.986055e+00 6.389670e-09 0
2.986055e+00 5.803209e-09 0
2.986055e+00 5.798920e-09 0
2.986055e+00 6.294913e-09 0
2.986055e+00 6.831444e-09 0
2.986055e+00 6.947671e-09 0
2.986055e+00 6.553830e-09 0
2.986055e+00 5.985042e-09 0
2.986055e+00 5.698876e-09 0
2.986055e+00 5.885844e-09 0
2.986055e+00 6.327545e-09 0
2.986055e+00 6.608110e-09 0
2.986055e+00 6.474387e-09 0
2.986055e+00 6.028439e-09 0
2.986055e+00 5.608523e-09 0
2.986055e+00 5.494667e-09 0
2.986055e+00 5.703547e-09 0
2.986055e+00 6.020431e-09 0
2.986055e+00 6.194656e-09 0
2.986055e+00 6.113357e-09 0
2.986055e+00 5.838825e-09 0
2.986055e+00 5.535321e-09 0
2.986055e+00 5.372675e-09 0
2.986055e+00 5.452795e-09 0
2.986055e+00 5.756743e-09 0
2.986055e+00 6.125733e-09 0
2.986055e+00 6.323494e-09 0
2.986055e+00 6.189357e-09 0
2.986055e+00 5.785819e-09 0
2.986055e+00 5.393985e-09 0
2.986055e+00 5.313311e-09 0
2.986055e+00 5.610312e-09 0
2.986055e+00 6.042250e-09 0
2.986055e+00 6.245884e-09 0
2.986055e+00 6.038347e-09 0
2.986055e+00 5.563350e-09 0
2.986055e+00 5.153655e-09 0
2.986055e+00 5.042421e-09 0
2.986055e+00 5.187094e-09 0
2.986055e+00 5.348693e-09 0
2.986055e+00 5.325935e-09 0
2.986055e+00 5.116134e-09 0
2.986055e+00 4.872637e-09 0
2.986055e+00 4.734592e-09 0
2.986055e+00 4.709335e-09 0
2.986055e+00 4.705378e-09 0
2.986055e+00 4.652862e-09 0
2.986055e+00 4.576217e-09 0
2.986055e+00 4.555013e-09 0
2.986055e+00 4.630607e-09 0
2.986055e+00 4.761976e-09 0
2.986055e+00 4.869859e-09 0
2.986055e+00 4.913766e-09 0
2.986055e+00 4.922442e-09 0
2.986055e+00 4.956809e-09 0
2.986055e+00 5.051209e-09 0
2.986055e+00 5.190121e-09 0
2.986055e+00 5.334188e-09 0
2.986055e+00 5.460251e-09 0
2.986055e+00 5.574662e-09 0
2.986055e+00 5.695226e-09 0
2.986055e+00 5.828019e-09 0
2.986055e+00 5.962679e-09 0
2.986055e+00 6.086251e-09 0
2.986055e+00 6.197651e-09 0
2.986055e+00 6.307682e-09 0
2.986055e+00 6.427037e-09 0
2.986055e+00 6.555938e-09 0
2.986055e+00 6.684360e-09 0
2.986055e+00 6.800343e-09 0
2.986055e+00 6.897915e-09 0
2.986055e+00 6.978663e-09 0
2.986055e+00 7.047608e-09 0
2.986055e+00 7.107905e-09 0
2.986055e+00 7.158260e-09 0
2.986055e+00 7.195008e-09 0
2.986055e+00 7.215293e-09 0
2.986055e+00 7.218054e-09 0
2.986055e+00 7.202331e-09 0
2.986054e+00 7.166485e-09 0
2.986054e+00 7.109343e-09 0
2.986054e+00 7.031101e-09 0
2.986054e+00 6.933584e-09 0
2.986054e+00 6.818380e-09 0
2.986054e+00 6.685655e-09 0
2.986054e+00 6.535465e-09 0
2.986054e+00 6.369078e-09 0
2.986054e+00 6.190796e-09 0
2.986054e+00 6.005052e-09 0
2.986054e+00 5.814828e-09 0
2.986054e+00 5.622537e-09 0
2.986054e+00 5.429388e-09 0
2.986054e+00 5.238094e-09 0
2.986054e+00 5.053073e-09 0
2.986054e+00 4.876889e-09 0
2.986054e+00 4.709901e-09 0
2.986054e+00 4.550525e-09 0
2.986054e+00 4.392800e-09 0
2.986054e+00 4.221792e-09 0
2.986054e+00 3.994419e-09 0
2.986054e+00 3.590467e-09 0
2.986054e+00 2.090863e-09 0
2.986054e+00 8.593457e-10 0
5.752475e+00 2.792523e-09 0
5.752475e+00 3.631801e-09 0
5.752475e+00 1.097018e-08 0
5.752475e+00 2.230925e-08 0
5.752475e+00 2.453886e-08 0
5.752475e+00 1.260855e-08 0
5.752475e+00 -7.182496e-09 0
5.752475e+00 -2.272050e-08 0
5.752475e+00 -2.511139e-08 0
5.752475e+00 -1.486721e-08 0
5.752475e+00 2.987557e-10 0
5.752475e+00 1.176561e-08 0
5.752475e+00 1.497834e-08 0
5.752475e+00 1.133401e-08 0
5.752475e+00 5.846386e-09 0
5.752475e+00 3.178384e-09 0
5.752475e+00 5.040140e-09 0
5.752475e+00 9.857078e-09 0
5.752475e+00 1.466790e-08 0
5.752475e+00 1.733612e-08 0
5.752475e+00 1.752298e-08 0
5.752475e+00 1.615401e-08 0
5.752475e+00 1.438173e-08 0
5.752475e+00 1.285140e-08 0
5.752475e+00 1.166833e-08 0
5.752475e+00 1.081339e-08 0
5.752475e+00 1.037430e-08 0
5.752475e+00 1.039111e-08 0
5.752475e+00 1.058140e-08 0
5.752475e+00 1.036704e-08 0
5.752475e+00 9.314193e-09 0
5.752475e+00 7.549467e-09 0
5.752475e+00 5.745415e-09 0
5.752475e+00 4.697480e-09 0
5.752475e+00 4.743320e-09 0
5.752475e+00 5.508844e-09 0
5.752475e+00 6.230109e-09 0
5.752475e+00 6.334591e-09 0
5.752475e+00 5.806457e-09 0
5.752475e+00 5.092490e-09 0
5.752475e+00 4.701116e-09 0
5.752475e+00 4.846785e-09 0
5.752475e+00 5.395705e-09 0
5.752475e+00 6.063321e-09 0
5.752475e+00 6.624297e-09 0
5.752475e+00 6.976376e-09 0
5.752475e+00 7.081199e-09 0
5.752475e+00 6.922835e-09 0
5.752475e+00 6.557341e-09 0
5.752475e+00 6.170401e-09 0
5.752475e+00 6.016783e-09 0
5.752475e+00 6.235489e-09 0
5.752475e+00 6.693748e-09 0
5.752475e+00 7.033269e-09 0
5.752475e+00 6.928715e-09 0
5.752475e+00 6.362869e-09 0
5.752475e+00 5.675393e-09 0
5.752475e+00 5.317399e-09 0
5.752475e+00 5.499251e-09 0
5.752475e+00 6.025135e-09 0
5.752475e+00 6.459013e-09 0
5.752475e+00 6.484636e-09 0
5.752475e+00 6.154708e-09 0
5.752475e+00 5.822042e-09 0
5.752475e+00 5.823232e-09 0
5.752475e+00 6.195624e-09 0
5.752475e+00 6.666212e-09 0
5.752475e+00 6.902239e-09 0
5.752475e+00 6.788724e-09 0
5.752475e+00 6.496105e-09 0
5.752475e+00 6.306187e-09 0
5.752475e+00 6.373760e-09 0
5.752475e+00 6.627957e-09 0
5.752475e+00 6.864173e-09 0
5.752475e+00 6.911743e-09 0
5.752475e+00 6.734370e-09 0
5.752475e+00 6.419559e-09 0
5.752475e+00 6.110684e-09 0
5.752475e+00 5.940461e-09 0
5.752475e+00 5.975013e-09 0
5.752475e+00 6.165125e-09 0
5.752475e+00 6.341131e-09 0
5.752475e+00 6.300404e-09 0
5.752475e+00 5.962285e-09 0
5.752475e+00 5.466711e-09 0
5.752475e+00 5.098620e-09 0
5.752475e+00 5.066059e-09 0
5.752475e+00 5.315550e-09 0
5.752475e+00 5.562444e-09 0
5.752475e+00 5.526451e-09 0
5.752475e+00 5.166499e-09 0
5.752475e+00 4.702791e-09 0
5.752475e+00 4.412248e-09 0
5.752475e+00 4.392552e-09 0
5.752475e+00 4.506498e-09 0
5.752475e+00 4.535938e-09 0
5.752475e+00 4.380646e-09 0
5.752475e+00 4.117490e-09 0
5.752475e+00 3.891218e-09 0
5.752475e+00 3.769431e-09 0
5.752475e+00 3.704615e-09 0
5.752475e+00 3.617551e-09 0
5.752475e+00 3.495731e-09 0
5.752475e+00 3.404022e-09 0
5.752475e+00 3.409333e-09 0
5.752475e+00 3.508587e-09 0
5.752475e+00 3.634576e-09 0
5.752475e+00 3.724911e-09 0
5.752475e+00 3.777698e-09 0
5.752475e+00 3.842724e-09 0
5.752475e+00 3.967002e-09 0
5.752475e+00 4.152924e-09 0
5.752475e+00 4.365615e-09 0
5.752475e+00 4.572289e-09 0
5.752475e+00 4.768674e-09 0
5.752475e+00 4.971066e-09 0
5.752475e+00 5.191281e-09 0
5.752475e+00 5.423141e-09 0
5.752475e+00 5.651120e-09 0
5.752475e+00 5.867898e-09 0
5.752475e+00 6.081102e-09 0
5.752475e+00 6.303893e-09 0
5.752475e+00 6.541131e-09 0
5.752475e+00 6.784697e-09 0
5.752475e+00 7.020203e-09 0
5.752475e+00 7.236759e-09 0
5.752475e+00 7.431686e-09 0
5.752475e+00 7.608243e-09 0
5.752475e+00 7.769784e-09 0
5.752475e+00 7.915075e-09 0
5.752475e+00 8.039005e-09 0
5.752475e+00 8.136502e-09 0
5.752475e+00 8.204793e-09 0
5.752475e+00 8.242537e-09 0
5.752475e+00 8.248134e-09 0
5.752475e+00 8.219815e-09 0
5.752475e+00 8.156468e-09 0
5.752475e+00 8.058811e-09 0
5.752475e+00 7.929052e-09 0
5.752475e+00 7.769410e-09 0
5.752475e+00 7.581456e-09 0
5.752475e+00 7.366213e-09 0
5.752475e+00 7.126659e-09 0
5.752475e+00 6.867707e-09 0
5.752475e+00 6.593909e-09 0
5.752475e+00 6.309801e-09 0
5.752475e+00 6.018116e-09 0
5.752475e+00 5.721314e-09 0
5.752475e+00 5.424430e-09 0
5.752475e+00 5.132005e-09 0
5.752475e+00 4.845762e-09 0
5.752475e+00 4.566016e-09 0
5.752475e+00 4.289360e-09 0
5.752475e+00 4.006067e-09 0
5.752475e+00 3.695994e-09 0
5.752475e+00 3.311412e-09 0
5.752475e+00 2.745456e-09 0
5.752475e+00 1.832538e-09 0
5.752475e+00 1.266222e-09 0
8.301825e+00 5.971730e-09 0
8.301825e+00 1.088957e-08 0
8.301825e+00 2.218553e-08 0
8.301825e+00 3.047831e-08 0
8.301825e+00 2.625051e-08 0
8.301825e+00 9.023480e-09 0
8.301825e+00 -1.128164e-08 0
8.301825e+00 -2.281168e-08 0
8.301825e+00 -2.044841e-08 0
8.301825e+00 -8.252618e-09 0
8.301825e+00 5.117430e-09 0
8.301825e+00 1.262140e-08 0
8.301825e+00 1.249073e-08 0
8.301825e+00 8.064578e-09 0
8.301825e+00 4.295229e-09 0
8.301825e+00 4.294362e-09 0
8.301825e+00 7.928293e-09 0
8.301825e+00 1.284322e-08 0
8.301825e+00 1.660044e-08 0
8.301825e+00 1.816072e-08 0
8.301825e+00 1.793396e-08 0
8.301825e+00 1.685798e-08 0
8.301825e+00 1.554738e-08 0
8.301825e+00 1.413091e-08 0
8.301825e+00 1.263512e-08 0
8.301825e+00 1.131897e-08 0
8.301825e+00 1.056964e-08 0
8.301825e+00 1.047039e-08 0
8.301825e+00 1.053459e-08 0
8.301825e+00 1.000547e-08 0
8.301825e+00 8.458770e-09 0
8.301825e+00 6.192022e-09 0
8.301825e+00 4.083558e-09 0
8.301825e+00 2.963441e-09 0
8.301825e+00 3.025079e-09 0
8.301825e+00 3.714587e-09 0
8.301825e+00 4.199093e-09 0
8.301825e+00 4.006207e-09 0
8.301825e+00 3.280391e-09 0
8.301825e+00 2.564585e-09 0
8.301825e+00 2.346266e-09 0
8.301825e+00 2.738849e-09 0
8.301825e+00 3.506077e-09 0
8.301825e+00 4.321651e-09 0
8.301825e+00 4.976089e-09 0
8.301825e+00 5.386467e-09 0
8.301825e+00 5.523746e-09 0
8.301825e+00 5.392486e-09 0
8.301825e+00 5.086492e-09 0
8.301825e+00 4.821616e-09 0
8.301825e+00 4.835232e-09 0
8.301825e+00 5.192218e-09 0
8.301825e+00 5.678142e-09 0
8.301825e+00 5.920267e-09 0
8.301825e+00 5.676148e-09 0
8.301825e+00 5.054878e-09 0
8.301825e+00 4.464829e-09 0
8.301825e+00 4.307150e-09 0
8.301825e+00 4.661311e-09 0
8.301825e+00 5.228734e-09 0
8.301825e+00 5.585389e-09 0
8.301825e+00 5.529148e-09 0
8.301825e+00 5.227833e-09 0
8.301825e+00 5.050941e-09 0
8.301825e+00 5.243559e-09 0
8.301825e+00 5.729124e-09 0
8.301825e+00 6.199358e-09 0
8.301825e+00 6.390249e-09 0
8.301825e+00 6.291112e-09 0
8.301825e+00 6.117586e-09 0
8.301825e+00 6.102748e-09 0
8.301825e+00 6.307774e-09 0
8.301825e+00 6.602590e-09 0
8.301825e+00 6.794855e-09 0
8.301825e+00 6.770692e-09 0
8.301825e+00 6.543548e-09 0
8.301825e+00 6.217065e-09 0
8.301825e+00 5.924872e-09 0
8.301825e+00 5.778908e-09 0
8.301825e+00 5.816239e-09 0
8.301825e+00 5.954026e-09 0
8.301825e+00 6.008588e-09 0
8.301825e+00 5.813719e-09 0
8.301825e+00 5.370748e-09 0
8.301825e+00 4.888514e-09 0
8.301825e+00 4.639323e-09 0
8.301825e+00 4.730728e-09 0
8.301825e+00 4.998606e-09 0
8.301825e+00 5.135496e-09 0
8.301825e+00 4.950027e-09 0
8.301825e+00 4.522291e-09 0
8.301825e+00 4.115056e-09 0
8.301825e+00 3.931816e-09 0
8.301825e+00 3.950429e-09 0
8.301825e+00 3.974706e-09 0
8.301825e+00 3.831805e-09 0
8.301825e+00 3.516734e-09 0
8.301825e+00 3.160848e-09 0
8.301825e+00 2.884644e-09 0
8.301825e+00 2.694919e-09 0
8.301825e+00 2.516264e-09 0
8.301825e+00 2.300007e-09 0
8.301825e+00 2.086192e-09 0
8.301825e+00 1.960755e-09 0
8.301825e+00 1.965324e-09 0
8.301825e+00 2.058959e-09 0
8.301825e+00 2.165316e-09 0
8.301825e+00 2.247351e-09 0
8.301825e+00 2.333319e-09 0
8.301825e+00 2.477357e-09 0
8.301825e+00 2.702720e-09 0
8.301825e+00 2.984459e-09 0
8.301825e+00 3.280291e-09 0
8.301825e+00 3.569219e-09 0
8.301825e+00 3.859291e-09 0
8.301825e+00 4.165993e-09 0
8.301825e+00 4.490348e-09 0
8.301825e+00 4.818237e-09 0
8.301825e+00 5.136559e-09 0
8.301825e+00 5.446156e-09 0
8.301825e+00 5.758540e-09 0
8.301825e+00 6.081998e-09 0
8.301825e+00 6.412441e-09 0
8.301825e+00 6.736494e-09 0
8.301825e+00 7.040871e-09 0
8.301825e+00 7.318953e-09 0
8.301825e+00 7.571113e-09 0
8.301825e+00 7.800111e-09 0
8.301825e+00 8.005962e-09 0
8.301825e+00 8.184588e-09 0
8.301825e+00 8.330668e-09 0
8.301825e+00 8.440298e-09 0
8.301825e+00 8.511657e-09 0
8.301825e+00 8.543762e-09 0
8.301825e+00 8.535459e-09 0
8.301825e+00 8.485612e-09 0
8.301825e+00 8.393833e-09 0
8.301825e+00 8.261410e-09 0
8.301825e+00 8.090829e-09 0
8.301825e+00 7.885148e-09 0
8.301825e+00 7.647241e-09 0
8.301825e+00 7.379263e-09 0
8.301825e+00 7.084630e-09 0
8.301825e+00 6.766998e-09 0
8.301825e+00 6.431543e-09 0
8.301825e+00 6.083594e-09 0
8.301825e+00 5.726219e-09 0
8.301825e+00 5.364191e-09 0
8.301825e+00 5.003320e-09 0
8.301825e+00 4.646373e-09 0
8.301825e+00 4.295478e-09 0
8.301825e+00 3.951483e-09 0
8.301825e+00 3.610412e-09 0
8.301825e+00 3.266754e-09 0
8.301825e+00 2.907486e-09 0
8.301825e+00 2.510679e-09 0
8.301825e+00 2.060776e-09 0
8.301825e+00 1.583224e-09 0
8.301825e+00 1.344850e-09 0
1.063661e+01 9.409826e-09 0
1.063661e+01 1.869956e-08 0
1.063661e+01 3.386452e-08 0
1.063661e+01 3.832116e-08 0
1.063661e+01 2.762028e-08 0
1.063661e+01 6.715654e-09 0
1.063661e+01 -1.195777e-08 0
1.063661e+01 -1.822578e-08 0
1.063661e+01 -1.100867e-08 0
1.063661e+01 2.505394e-09 0
1.063661e+01 1.314314e-08 0
1.063661e+01 1.585957e-08 0
1.063661e+01 1.197662e-08 0
1.063661e+01 6.683311e-09 0
1.063661e+01 4.718727e-09 0
1.063661e+01 7.391881e-09 0
1.063661e+01 1.259002e-08 0
1.063661e+01 1.718502e-08 0
1.063661e+01 1.933088e-08 0
1.063661e+01 1.918727e-08 0
1.063661e+01 1.803207e-08 0
1.063661e+01 1.688124e-08 0
1.063661e+01 1.586883e-08 0
1.063661e+01 1.462952e-08 0
1.063661e+01 1.303069e-08 0
1.063661e+01 1.147566e-08 0
1.063661e+01 1.050750e-08 0
1.063661e+01 1.016922e-08 0
1.063661e+01 9.848828e-09 0
1.063661e+01 8.750364e-09 0
1.063661e+01 6.583288e-09 0
1.063661e+01 3.882760e-09 0
1.063661e+01 1.626192e-09 0
1.063661e+01 5.181344e-10 0
1.063661e+01 5.165688e-10 0
1.063661e+01 9.530824e-10 0
1.063661e+01 1.066137e-09 0
1.063661e+01 5.542762e-10 0
1.063661e+01 -2.517992e-10 0
1.063661e+01 -7.801242e-10 0
1.063661e+01 -7.073762e-10 0
1.063661e+01 -9.738981e-11 0
1.063661e+01 7.819521e-10 0
1.063661e+01 1.680096e-09 0
1.063661e+01 2.452046e-09 0
1.063661e+01 3.015550e-09 0
1.063661e+01 3.297059e-09 0
1.063661e+01 3.277119e-09 0
1.063661e+01 3.079098e-09 0
1.063661e+01 2.966855e-09 0
1.063661e+01 3.178547e-09 0
1.063661e+01 3.709436e-09 0
1.063661e+01 4.262037e-09 0
1.063661e+01 4.453516e-09 0
1.063661e+01 4.132287e-09 0
1.063661e+01 3.532243e-09 0
1.063661e+01 3.112717e-09 0
1.063661e+01 3.201460e-09 0
1.063661e+01 3.737297e-09 0
1.063661e+01 4.331900e-09 0
1.063661e+01 4.597779e-09 0
1.063661e+01 4.461134e-09 0
1.063661e+01 4.196612e-09 0
1.063661e+01 4.168409e-09 0
1.063661e+01 4.515805e-09 0
1.063661e+01 5.055596e-09 0
1.063661e+01 5.466996e-09 0
1.063661e+01 5.573507e-09 0
1.063661e+01 5.469526e-09 0
1.063661e+01 5.402772e-09 0
1.063661e+01 5.547139e-09 0
1.063661e+01 5.874297e-09 0
1.063661e+01 6.209699e-09 0