<?xml version="1.0"?>
<VTKFile type="StructuredGrid">
<StructuredGrid WholeExtent="0 158 0 30 0 0 ">
<Piece Extent="0 158 0 30 0 0 ">
<Points>
<DataArray type="Float64" format="ascii" NumberOfComponents="3">
0.000000e+00 0.000000e+00 0.000000e+00
3.164557e-02 0.000000e+00 0.000000e+00
6.329114e-02 0.000000e+00 0.000000e+00
9.493671e-02 0.000000e+00 0.000000e+00
1.265823e-01 0.000000e+00 0.000000e+00
1.582278e-01 0.000000e+00 0.000000e+00
1.898734e-01 0.000000e+00 0.000000e+00
2.215190e-01 0.000000e+00 0.000000e+00
2.531646e-01 0.000000e+00 0.000000e+00
2.848101e-01 0.000000e+00 0.000000e+00
3.164557e-01 0.000000e+00 0.000000e+00
3.481013e-01 0.000000e+00 0.000000e+00
3.797468e-01 0.000000e+00 0.000000e+00
4.113924e-01 0.000000e+00 0.000000e+00
4.430380e-01 0.000000e+00 0.000000e+00
4.746835e-01 0.000000e+00 0.000000e+00
5.063291e-01 0.000000e+00 0.000000e+00
5.379747e-01 0.000000e+00 0.000000e+00
5.696203e-01 0.000000e+00 0.000000e+00
6.012658e-01 0.000000e+00 0.000000e+00
6.329114e-01 0.000000e+00 0.000000e+00
6.645570e-01 0.000000e+00 0.000000e+00
6.962025e-01 0.000000e+00 0.000000e+00
7.278481e-01 0.000000e+00 0.000000e+00
7.594937e-01 0.000000e+00 0.000000e+00
7.911392e-01 0.000000e+00 0.000000e+00
8.227848e-01 0.000000e+00 0.000000e+00
8.544304e-01 0.000000e+00 0.000000e+00
8.860759e-01 0.000000e+00 0.000000e+00
9.177215e-01 0.000000e+00 0.000000e+00
9.493671e-01 0.000000e+00 0.000000e+00
9.810127e-01 0.000000e+00 0.000000e+00
1.012658e+00 0.000000e+00 0.000000e+00
1.044304e+00 0.000000e+00 0.000000e+00
1.075949e+00 0.000000e+00 0.000000e+00
1.107595e+00 0.000000e+00 0.000000e+00
1.139241e+00 0.000000e+00 0.000000e+00
1.170886e+00 0.000000e+00 0.000000e+00
1.202532e+00 0.000000e+00 0.000000e+00
1.234177e+00 0.000000e+00 0.000000e+00
1.265823e+00 0.000000e+00 0.000000e+00
1.297468e+00 0.000000e+00 0.000000e+00
1.329114e+00 0.000000e+00 0.000000e+00
1.360759e+00 0.000000e+00 0.000000e+00
1.392405e+00 0.000000e+00 0.000000e+00
1.424051e+00 0.000000e+00 0.000000e+00
1.455696e+00 0.000000e+00 0.000000e+00
1.487342e+00 0.000000e+00 0.000000e+00
1.518987e+00 0.000000e+00 0.000000e+00
1.550633e+00 0.000000e+00 0.000000e+00
1.582278e+00 0.000000e+00 0.000000e+00
1.613924e+00 0.000000e+00 0.000000e+00
1.645570e+00 0.000000e+00 0.000000e+00
1.677215e+00 0.000000e+00 0.000000e+00
1.708861e+00 0.000000e+00 0.000000e+00
1.740506e+00 0.000000e+00 0.000000e+00
1.772152e+00 0.000000e+00 0.000000e+00
1.803797e+00 0.000000e+00 0.000000e+00
1.835443e+00 0.000000e+00 0.000000e+00
1.867089e+00 0.000000e+00 0.000000e+00
1.898734e+00 0.000000e+00 0.000000e+00
1.930380e+00 0.000000e+00 0.000000e+00
1.962025e+00 0.000000e+00 0.000000e+00
1.993671e+00 0.000000e+00 0.000000e+00
2.025316e+00 0.000000e+00 0.000000e+00
2.056962e+00 0.000000e+00 0.000000e+00
2.088608e+00 0.000000e+00 0.000000e+00
2.120253e+00 0.000000e+00 0.000000e+00
2.151899e+00 0.000000e+00 0.000000e+00
2.183544e+00 0.000000e+00 0.000000e+00
2.215190e+00 0.000000e+00 0.000000e+00
2.246835e+00 0.000000e+00 0.000000e+00
2.278481e+00 0.000000e+00 0.000000e+00
2.310127e+00 0.000000e+00 0.000000e+00
2.341772e+00 0.000000e+00 0.000000e+00
2.373418e+00 0.000000e+00 0.000000e+00
2.405063e+00 0.000000e+00 0.000000e+00
2.436709e+00 0.000000e+00 0.000000e+00
2.468354e+00 0.000000e+00 0.000000e+00
2.500000e+00 0.000000e+00 0.000000e+00
2.531646e+00 0.000000e+00 0.000000e+00
2.563291e+00 0.000000e+00 0.000000e+00
2.594937e+00 0.000000e+00 0.000000e+00
2.626582e+00 0.000000e+00 0.000000e+00
2.658228e+00 0.000000e+00 0.000000e+00
2.689873e+00 0.000000e+00 0.000000e+00
2.721519e+00 0.000000e+00 0.000000e+00
2.753165e+00 0.000000e+00 0.000000e+00
2.784810e+00 0.000000e+00 0.000000e+00
2.816456e+00 0.000000e+00 0.000000e+00
2.848101e+00 0.000000e+00 0.000000e+00
2.879747e+00 0.000000e+00 0.000000e+00
2.911392e+00 0.000000e+00 0.000000e+00
2.943038e+00 0.000000e+00 0.000000e+00
2.974684e+00 0.000000e+00 0.000000e+00
3.006329e+00 0.000000e+00 0.000000e+00
3.037975e+00 0.000000e+00 0.000000e+00
3.069620e+00 0.000000e+00 0.000000e+00
3.101266e+00 0.000000e+00 0.000000e+00
3.132911e+00 0.000000e+00 0.000000e+00
3.164557e+00 0.000000e+00 0.000000e+00
3.196203e+00 0.000000e+00 0.000000e+00
3.227848e+00 0.000000e+00 0.000000e+00
3.259494e+00 0.000000e+00 0.000000e+00
3.291139e+00 0.000000e+00 0.000000e+00
3.322785e+00 0.000000e+00 0.000000e+00
3.354430e+00 0.000000e+00 0.000000e+00
3.386076e+00 0.000000e+00 0.000000e+00
3.417722e+00 0.000000e+00 0.000000e+00
3.449367e+00 0.000000e+00 0.000000e+00
3.481013e+00 0.000000e+00 0.000000e+00
3.512658e+00 0.000000e+00 0.000000e+00
3.544304e+00 0.000000e+00 0.000000e+00
3.575949e+00 0.000000e+00 0.000000e+00
3.607595e+00 0.000000e+00 0.000000e+00
3.639241e+00 0.000000e+00 0.000000e+00
3.670886e+00 0.000000e+00 0.000000e+00
3.702532e+00 0.000000e+00 0.000000e+00
3.734177e+00 0.000000e+00 0.000000e+00
3.765823e+00 0.000000e+00 0.000000e+00
3.797468e+00 0.000000e+00 0.000000e+00
3.829114e+00 0.000000e+00 0.000000e+00
3.860759e+00 0.000000e+00 0.000000e+00
3.892405e+00 0.000000e+00 0.000000e+00
3.924051e+00 0.000000e+00 0.000000e+00
3.955696e+00 0.000000e+00 0.000000e+00
3.987342e+00 0.000000e+00 0.000000e+00
4.018987e+00 0.000000e+00 0.000000e+00
4.050633e+00 0.000000e+00 0.000000e+00
4.082278e+00 0.000000e+00 0.000000e+00
4.113924e+00 0.000000e+00 0.000000e+00
4.145570e+00 0.000000e+00 0.000000e+00
4.177215e+00 0.000000e+00 0.000000e+00
4.208861e+00 0.000000e+00 0.000000e+00
4.240506e+00 0.000000e+00 0.000000e+00
4.272152e+00 0.000000e+00 0.000000e+00
4.303797e+00 0.000000e+00 0.000000e+00
4.335443e+00 0.000000e+00 0.000000e+00
4.367089e+00 0.000000e+00 0.000000e+00
4.398734e+00 0.000000e+00 0.000000e+00
4.430380e+00 0.000000e+00 0.000000e+00
4.462025e+00 0.000000e+00 0.000000e+00
4.493671e+00 0.000000e+00 0.000000e+00
4.525316e+00 0.000000e+00 0.000000e+00
4.556962e+00 0.000000e+00 0.000000e+00
4.588608e+00 0.000000e+00 0.000000e+00
4.620253e+00 0.000000e+00 0.000000e+00
4.651899e+00 0.000000e+00 0.000000e+00
4.683544e+00 0.000000e+00 0.000000e+00
4.715190e+00 0.000000e+00 0.000000e+00
4.746835e+00 0.000000e+00 0.000000e+00
4.778481e+00 0.000000e+00 0.000000e+00
4.810127e+00 0.000000e+00 0.000000e+00
4.841772e+00 0.000000e+00 0.000000e+00
4.873418e+00 0.000000e+00 0.000000e+00
4.905063e+00 0.000000e+00 0.000000e+00
4.936709e+00 0.000000e+00 0.000000e+00
4.968354e+00 0.000000e+00 0.000000e+00
5.000000e+00 0.000000e+00 0.000000e+00
0.000000e+00 3.333333e-02 0.000000e+00
3.164557e-02 3.333333e-02 0.000000e+00
6.329114e-02 3.333333e-02 0.000000e+00
9.493671e-02 3.333333e-02 0.000000e+00
1.265823e-01 3.333333e-02 0.000000e+00
1.582278e-01 3.333333e-02 0.000000e+00
1.898734e-01 3.333333e-02 0.000000e+00
2.215190e-01 3.333333e-02 0.000000e+00
2.531646e-01 3.333333e-02 0.000000e+00
2.848101e-01 3.333333e-02 0.000000e+00
3.164557e-01 3.333333e-02 0.000000e+00
3.481013e-01 3.333333e-02 0.000000e+00
3.797468e-01 3.333333e-02 0.000000e+00
4.113924e-01 3.333333e-02 0.000000e+00
4.430380e-01 3.333333e-02 0.000000e+00
4.746835e-01 3.333333e-02 0.000000e+00
5.063291e-01 3.333333e-02 0.000000e+00
5.379747e-01 3.333333e-02 0.000000e+00
5.696203e-01 3.333333e-02 0.000000e+00
6.012658e-01 3.333333e-02 0.000000e+00
6.329114e-01 3.333333e-02 0.000000e+00
6.645570e-01 3.333333e-02 0.000000e+00
6.962025e-01 3.333333e-02 0.000000e+00
7.278481e-01 3.333333e-02 0.000000e+00
7.594937e-01 3.333333e-02 0.000000e+00
7.911392e-01 3.333333e-02 0.000000e+00
8.227848e-01 3.333333e-02 0.000000e+00
8.544304e-01 3.333333e-02 0.000000e+00
8.860759e-01 3.333333e-02 0.000000e+00
9.177215e-01 3.333333e-02 0.000000e+00
9.493671e-01 3.333333e-02 0.000000e+00
9.810127e-01 3.333333e-02 0.000000e+00
1.012658e+00 3.333333e-02 0.000000e+00
1.044304e+00 3.333333e-02 0.000000e+00
1.075949e+00 3.333333e-02 0.000000e+00
1.107595e+00 3.333333e-02 0.000000e+00
1.139241e+00 3.333333e-02 0.000000e+00
1.170886e+00 3.333333e-02 0.000000e+00
1.202532e+00 3.333333e-02 0.000000e+00
1.234177e+00 3.333333e-02 0.000000e+00
1.265823e+00 3.333333e-02 0.000000e+00
1.297468e+00 3.333333e-02 0.000000e+00
1.329114e+00 3.333333e-02 0.000000e+00
1.360759e+00 3.333333e-02 0.000000e+00
1.392405e+00 3.333333e-02 0.000000e+00
1.424051e+00 3.333333e-02 0.000000e+00
1.455696e+00 3.333333e-02 0.000000e+00
1.487342e+00 3.333333e-02 0.000000e+00
1.518987e+00 3.333333e-02 0.000000e+00
1.550633e+00 3.333333e-02 0.000000e+00
1.582278e+00 3.333333e-02 0.000000e+00
1.613924e+00 3.333333e-02 0.000000e+00
1.645570e+00 3.333333e-02 0.000000e+00
1.677215e+00 3.333333e-02 0.000000e+00
1.708861e+00 3.333333e-02 0.000000e+00
1.740506e+00 3.333333e-02 0.000000e+00
1.772152e+00 3.333333e-02 0.000000e+00
1.803797e+00 3.333333e-02 0.000000e+00
1.835443e+00 3.333333e-02 0.000000e+00
1.867089e+00 3.333333e-02 0.000000e+00
1.898734e+00 3.333333e-02 0.000000e+00
1.930380e+00 3.333333e-02 0.000000e+00
1.962025e+00 3.333333e-02 0.000000e+00
1.993671e+00 3.333333e-02 0.000000e+00
2.025316e+00 3.333333e-02 0.000000e+00
2.056962e+00 3.333333e-02 0.000000e+00
2.088608e+00 3.333333e-02 0.000000e+00
2.120253e+00 3.333333e-02 0.000000e+00
2.151899e+00 3.333333e-02 0.000000e+00
2.183544e+00 3.333333e-02 0.000000e+00
2.215190e+00 3.333333e-02 0.000000e+00
2.246835e+00 3.333333e-02 0.000000e+00
2.278481e+00 3.333333e-02 0.000000e+00
2.310127e+00 3.333333e-02 0.000000e+00
2.341772e+00 3.333333e-02 0.000000e+00
2.373418e+00 3.333333e-02 0.000000e+00
2.405063e+00 3.333333e-02 0.000000e+00
2.436709e+00 3.333333e-02 0.000000e+00
2.468354e+00 3.333333e-02 0.000000e+00
2.500000e+00 3.333333e-02 0.000000e+00
2.531646e+00 3.333333e-02 0.000000e+00
2.563291e+00 3.333333e-02 0.000000e+00
2.594937e+00 3.333333e-02 0.000000e+00
2.626582e+00 3.333333e-02 0.000000e+00
2.658228e+00 3.333333e-02 0.000000e+00
2.689873e+00 3.333333e-02 0.000000e+00
2.721519e+00 3.333333e-02 0.000000e+00
2.753165e+00 3.333333e-02 0.000000e+00
2.784810e+00 3.333333e-02 0.000000e+00
2.816456e+00 3.333333e-02 0.000000e+00
2.848101e+00 3.333333e-02 0.000000e+00
2.879747e+00 3.333333e-02 0.000000e+00
[...]
<PointData>
<DataArray Name="Velocity" type="Float64" format="ascii" NumberOfComponents="3">
0.000000e+00 0.000000e+00 0
0.000000e+00 0.000000e+00 0
0.000000e+00 0.000000e+00 0
0.000000e+00 0.000000e+00 0
0.000000e+00 0.000000e+00 0
0.000000e+00 0.000000e+00 0
0.000000e+00 0.000000e+00 0
0.000000e+00 0.000000e+00 0
0.000000e+00 0.000000e+00 0
0.000000e+00 0.000000e+00 0
0.000000e+00 0.000000e+00 0
0.000000e+00 0.000000e+00 0
0.000000e+00 0.000000e+00 0
0.000000e+00 0.000000e+00 0
0.000000e+00 0.000000e+00 0
0.000000e+00 0.000000e+00 0
0.000000e+00 0.000000e+00 0
0.000000e+00 0.000000e+00 0
0.000000e+00 0.000000e+00 0
2.463981e-17 0.000000e+00 0
0.000000e+00 0.000000e+00 0
0.000000e+00 0.000000e+00 0
0.000000e+00 0.000000e+00 0
2.463976e-17 0.000000e+00 0
0.000000e+00 0.000000e+00 0
0.000000e+00 0.000000e+00 0
0.000000e+00 0.000000e+00 0
2.463971e-17 0.000000e+00 0
0.000000e+00 0.000000e+00 0
0.000000e+00 0.000000e+00 0
0.000000e+00 0.000000e+00 0
2.463966e-17 0.000000e+00 0
0.000000e+00 0.000000e+00 0
0.000000e+00 0.000000e+00 0
0.000000e+00 0.000000e+00 0
0.000000e+00 0.000000e+00 0
0.000000e+00 0.000000e+00 0
0.000000e+00 0.000000e+00 0
4.927910e-17 0.000000e+00 0
0.000000e+00 0.000000e+00 0
0.000000e+00 0.000000e+00 0
0.000000e+00 0.000000e+00 0
0.000000e+00 0.000000e+00 0
0.000000e+00 0.000000e+00 0
0.000000e+00 0.000000e+00 0
0.000000e+00 0.000000e+00 0
4.927886e-17 0.000000e+00 0
0.000000e+00 0.000000e+00 0
0.000000e+00 0.000000e+00 0
0.000000e+00 0.000000e+00 0
0.000000e+00 0.000000e+00 0
0.000000e+00 0.000000e+00 0
0.000000e+00 0.000000e+00 0
0.000000e+00 0.000000e+00 0
4.927866e-17 0.000000e+00 0
0.000000e+00 0.000000e+00 0
0.000000e+00 0.000000e+00 0
0.000000e+00 0.000000e+00 0
0.000000e+00 0.000000e+00 0
0.000000e+00 0.000000e+00 0
0.000000e+00 0.000000e+00 0
0.000000e+00 0.000000e+00 0
4.927846e-17 0.000000e+00 0
0.000000e+00 0.000000e+00 0
0.000000e+00 0.000000e+00 0
0.000000e+00 0.000000e+00 0
0.000000e+00 0.000000e+00 0
0.000000e+00 0.000000e+00 0
0.000000e+00 0.000000e+00 0
0.000000e+00 0.000000e+00 0
0.000000e+00 0.000000e+00 0
0.000000e+00 0.000000e+00 0
0.000000e+00 0.000000e+00 0
0.000000e+00 0.000000e+00 0
0.000000e+00 0.000000e+00 0
0.000000e+00 0.000000e+00 0
0.000000e+00 0.000000e+00 0
0.000000e+00 0.000000e+00 0
0.000000e+00 0.000000e+00 0
0.000000e+00 0.000000e+00 0
0.000000e+00 0.000000e+00 0
0.000000e+00 0.000000e+00 0
0.000000e+00 0.000000e+00 0
0.000000e+00 0.000000e+00 0
0.000000e+00 0.000000e+00 0
0.000000e+00 0.000000e+00 0
0.000000e+00 0.000000e+00 0
0.000000e+00 0.000000e+00 0
0.000000e+00 0.000000e+00 0
0.000000e+00 0.000000e+00 0
0.000000e+00 0.000000e+00 0
0.000000e+00 0.000000e+00 0
0.000000e+00 0.000000e+00 0
0.000000e+00 0.000000e+00 0
0.000000e+00 0.000000e+00 0
0.000000e+00 0.000000e+00 0
0.000000e+00 0.000000e+00 0
0.000000e+00 0.000000e+00 0
0.000000e+00 0.000000e+00 0
0.000000e+00 0.000000e+00 0
0.000000e+00 0.000000e+00 0
0.000000e+00 0.000000e+00 0
0.000000e+00 0.000000e+00 0
0.000000e+00 0.000000e+00 0
0.000000e+00 0.000000e+00 0
0.000000e+00 0.000000e+00 0
0.000000e+00 0.000000e+00 0
0.000000e+00 0.000000e+00 0
0.000000e+00 0.000000e+00 0
0.000000e+00 0.000000e+00 0
0.000000e+00 0.000000e+00 0
0.000000e+00 0.000000e+00 0
0.000000e+00 0.000000e+00 0
0.000000e+00 0.000000e+00 0
0.000000e+00 0.000000e+00 0
0.000000e+00 0.000000e+00 0
0.000000e+00 0.000000e+00 0
0.000000e+00 0.000000e+00 0
0.000000e+00 0.000000e+00 0
0.000000e+00 0.000000e+00 0
0.000000e+00 0.000000e+00 0
0.000000e+00 0.000000e+00 0
0.000000e+00 0.000000e+00 0
0.000000e+00 0.000000e+00 0
0.000000e+00 0.000000e+00 0
0.000000e+00 0.000000e+00 0
0.000000e+00 0.000000e+00 0
0.000000e+00 0.000000e+00 0
0.000000e+00 0.000000e+00 0
0.000000e+00 0.000000e+00 0
0.000000e+00 0.000000e+00 0
0.000000e+00 0.000000e+00 0
0.000000e+00 0.000000e+00 0
0.000000e+00 0.000000e+00 0
0.000000e+00 0.000000e+00 0
0.000000e+00 0.000000e+00 0
0.000000e+00 0.000000e+00 0
0.000000e+00 0.000000e+00 0
0.000000e+00 0.000000e+00 0
0.000000e+00 0.000000e+00 0
0.000000e+00 0.000000e+00 0
0.000000e+00 0.000000e+00 0
0.000000e+00 0.000000e+00 0
0.000000e+00 0.000000e+00 0
0.000000e+00 0.000000e+00 0
0.000000e+00 0.000000e+00 0
0.000000e+00 0.000000e+00 0
0.000000e+00 0.000000e+00 0
0.000000e+00 0.000000e+00 0
0.000000e+00 0.000000e+00 0
0.000000e+00 0.000000e+00 0
0.000000e+00 0.000000e+00 0
0.000000e+00 0.000000e+00 0
0.000000e+00 0.000000e+00 0
0.000000e+00 0.000000e+00 0
0.000000e+00 0.000000e+00 0
0.000000e+00 0.000000e+00 0
0.000000e+00 0.000000e+00 0
0.000000e+00 0.000000e+00 0
3.042123e+00 1.816873e-08 0
3.042123e+00 3.513343e-08 0
3.042123e+00 6.180882e-08 0
3.042123e+00 7.030253e-08 0
3.042123e+00 5.906248e-08 0
3.042123e+00 3.693069e-08 0
3.042123e+00 1.673158e-08 0
3.042123e+00 7.155540e-09 0
3.042123e+00 8.460516e-09 0
3.042123e+00 1.423176e-08 0
3.042123e+00 1.770073e-08 0
3.042123e+00 1.562754e-08 0
3.042123e+00 9.264619e-09 0
3.042123e+00 2.783970e-09 0
3.042123e+00 -5.239528e-10 0
3.042123e+00 -4.377609e-10 0
3.042123e+00 1.251536e-09 0
3.042123e+00 2.701574e-09 0
3.042123e+00 3.118974e-09 0
3.042123e+00 2.874381e-09 0
3.042123e+00 2.719605e-09 0
3.042123e+00 3.070214e-09 0
3.042123e+00 3.791924e-09 0
3.042123e+00 4.463264e-09 0
3.042123e+00 4.841076e-09 0
3.042123e+00 5.050399e-09 0
3.042123e+00 5.390521e-09 0
3.042123e+00 6.005830e-09 0
3.042123e+00 6.739519e-09 0
3.042123e+00 7.279593e-09 0
3.042123e+00 7.438379e-09 0
3.042123e+00 7.316409e-09 0
3.042123e+00 7.229557e-09 0
3.042123e+00 7.476413e-09 0
3.042123e+00 8.128393e-09 0
3.042123e+00 8.983222e-09 0
3.042123e+00 9.696266e-09 0
3.042123e+00 9.994833e-09 0
3.042123e+00 9.841628e-09 0
3.042123e+00 9.446462e-09 0
3.042123e+00 9.113838e-09 0
3.042123e+00 9.021866e-09 0
3.042123e+00 9.092424e-09 0
3.042123e+00 9.067676e-09 0
3.042123e+00 8.750863e-09 0
3.042123e+00 8.214826e-09 0
3.042123e+00 7.777069e-09 0
3.042123e+00 7.732064e-09 0
3.042123e+00 8.066828e-09 0
3.042123e+00 8.429192e-09 0
3.042123e+00 8.411461e-09 0
3.042123e+00 7.912056e-09 0
3.042123e+00 7.246696e-09 0
3.042123e+00 6.897136e-09 0
3.042123e+00 7.104815e-09 0
3.042123e+00 7.672499e-09 0
3.042123e+00 8.137524e-09 0
3.042123e+00 8.145964e-09 0
3.042123e+00 7.708869e-09 0
3.042123e+00 7.146371e-09 0
3.042123e+00 6.800321e-09 0
3.042123e+00 6.780121e-09 0
3.042123e+00 6.942209e-09 0
3.042123e+00 7.055726e-09 0
3.042123e+00 6.989773e-09 0
3.042123e+00 6.778035e-09 0
3.042123e+00 6.545311e-09 0
3.042123e+00 6.393285e-09 0
3.042123e+00 6.337990e-09 0
3.042123e+00 6.330310e-09 0
3.042123e+00 6.314635e-09 0
3.042123e+00 6.266799e-09 0
3.042123e+00 6.191977e-09 0
3.042123e+00 6.109518e-09 0
3.042123e+00 6.034266e-09 0
3.042123e+00 5.969002e-09 0
3.042123e+00 5.910312e-09 0
3.042123e+00 5.853205e-09 0
3.042123e+00 5.796419e-09 0
3.042123e+00 5.745545e-09 0
3.042123e+00 5.710717e-09 0
3.042123e+00 5.700628e-09 0
3.042123e+00 5.716172e-09 0
3.042123e+00 5.750470e-09 0
3.042123e+00 5.790628e-09 0
3.042123e+00 5.822389e-09 0
3.042123e+00 5.835706e-09 0
3.042123e+00 5.827486e-09 0
3.042123e+00 5.800217e-09 0
3.042123e+00 5.757824e-09 0
3.042123e+00 5.704802e-09 0
3.042123e+00 5.645933e-09 0
3.042123e+00 5.586782e-09 0
3.042123e+00 5.532451e-09 0
3.042123e+00 5.485495e-09 0
3.042123e+00 5.444864e-09 0
3.042123e+00 5.407963e-09 0
3.042123e+00 5.374969e-09 0
3.042123e+00 5.350766e-09 0
3.042123e+00 5.341689e-09 0
3.042123e+00 5.349502e-09 0
3.042123e+00 5.368281e-09 0
3.042123e+00 5.387369e-09 0
3.042123e+00 5.397832e-09 0
3.042123e+00 5.396935e-09 0
3.042123e+00 5.387362e-09 0
3.042123e+00 5.372720e-09 0
3.042123e+00 5.353825e-09 0
3.042123e+00 5.328480e-09 0
3.042123e+00 5.293892e-09 0
3.042123e+00 5.249204e-09 0
3.042123e+00 5.196229e-09 0
3.042123e+00 5.138473e-09 0
3.042123e+00 5.079893e-09 0
3.042123e+00 5.024255e-09 0
3.042123e+00 4.974748e-09 0
3.042123e+00 4.933677e-09 0
3.042123e+00 4.902183e-09 0
3.042123e+00 4.880375e-09 0
3.042123e+00 4.868437e-09 0
3.042123e+00 4.867638e-09 0
3.042123e+00 4.879995e-09 0
3.042123e+00 4.906836e-09 0
3.042123e+00 4.947441e-09 0
3.042123e+00 4.998702e-09 0
3.042123e+00 5.056642e-09 0
3.042123e+00 5.118361e-09 0
3.042123e+00 5.182494e-09 0
3.042123e+00 5.248469e-09 0
3.042123e+00 5.315253e-09 0
3.042123e+00 5.380861e-09 0
3.042123e+00 5.443387e-09 0
3.042123e+00 5.501452e-09 0
3.042123e+00 5.553815e-09 0
3.042123e+00 5.599436e-09 0
3.042123e+00 5.637513e-09 0
3.042123e+00 5.667551e-09 0
3.042123e+00 5.690067e-09 0
3.042123e+00 5.706776e-09 0
3.042123e+00 5.718633e-09 0
3.042123e+00 5.725471e-09 0
3.042123e+00 5.726912e-09 0
3.042123e+00 5.723254e-09 0
3.042123e+00 5.716001e-09 0
3.042123e+00 5.707017e-09 0
3.042123e+00 5.697652e-09 0
3.042123e+00 5.688495e-09 0
3.042123e+00 5.679865e-09 0
3.042123e+00 5.671904e-09 0
3.042123e+00 5.664481e-09 0
3.042123e+00 5.656122e-09 0
3.042123e+00 5.644029e-09 0
3.042123e+00 5.623142e-09 0
3.042123e+00 5.584202e-09 0
3.042123e+00 5.504956e-09 0
3.042123e+00 5.325673e-09 0
3.042123e+00 4.855821e-09 0
3.042123e+00 3.119539e-09 0
3.042123e+00 1.727678e-09 0
5.863997e+00 1.640013e-08 0
5.863997e+00 3.553412e-08 0
5.863997e+00 6.259700e-08 0
5.863997e+00 6.656025e-08 0
5.863997e+00 5.192992e-08 0
5.863997e+00 3.133967e-08 0
5.863997e+00 1.696386e-08 0
5.863997e+00 1.359969e-08 0
5.863997e+00 1.820962e-08 0
5.863997e+00 2.402450e-08 0
5.863997e+00 2.553578e-08 0
5.863997e+00 2.160283e-08 0
5.863997e+00 1.489823e-08 0
5.863997e+00 9.164754e-09 0
5.863997e+00 6.555554e-09 0
5.863997e+00 6.705855e-09 0
5.863997e+00 7.855258e-09 0
5.863997e+00 8.338426e-09 0
5.863997e+00 7.606660e-09 0
5.863997e+00 6.229563e-09 0
5.863997e+00 5.061913e-09 0
5.863997e+00 4.578749e-09 0
5.863997e+00 4.688743e-09 0
5.863997e+00 5.009431e-09 0
5.863997e+00 5.263146e-09 0
5.863997e+00 5.449413e-09 0
5.863997e+00 5.726687e-09 0
5.863997e+00 6.188164e-09 0
5.863997e+00 6.757441e-09 0
5.863997e+00 7.270639e-09 0
5.863997e+00 7.633525e-09 0
5.863997e+00 7.903352e-09 0
5.863997e+00 8.238379e-09 0
5.863997e+00 8.772024e-09 0
5.863997e+00 9.510299e-09 0
5.863997e+00 1.031455e-08 0
5.863997e+00 1.097241e-08 0
5.863997e+00 1.131596e-08 0
5.863997e+00 1.132148e-08 0
5.863997e+00 1.112385e-08 0
5.863997e+00 1.091881e-08 0
5.863997e+00 1.080952e-08 0
5.863997e+00 1.072108e-08 0
5.863997e+00 1.047702e-08 0
5.863997e+00 9.994010e-09 0
5.863997e+00 9.417931e-09 0
5.863997e+00 9.044960e-09 0
5.863997e+00 9.065213e-09 0
5.863997e+00 9.354243e-09 0
5.863997e+00 9.535517e-09 0
5.863997e+00 9.294081e-09 0
5.863997e+00 8.671432e-09 0
5.863997e+00 8.063812e-09 0
5.863997e+00 7.899192e-09 0
5.863997e+00 8.276147e-09 0
5.863997e+00 8.879368e-09 0
5.863997e+00 9.237100e-09 0
5.863997e+00 9.092766e-09 0
5.863997e+00 8.573082e-09 0
5.863997e+00 8.035980e-09 0
5.863997e+00 7.767048e-09 0
5.863997e+00 7.791299e-09 0
5.863997e+00 7.913321e-09 0
5.863997e+00 7.912454e-09 0
5.863997e+00 7.709640e-09 0
5.863997e+00 7.382594e-09 0
5.863997e+00 7.064447e-09 0
5.863997e+00 6.835822e-09 0
5.863997e+00 6.691315e-09 0
5.863997e+00 6.578895e-09 0
5.863997e+00 6.450057e-09 0
5.863997e+00 6.286350e-09 0
5.863997e+00 6.097005e-09 0
5.863997e+00 5.896805e-09 0
5.863997e+00 5.695482e-09 0
5.863997e+00 5.493579e-09 0
5.863997e+00 5.285766e-09 0
5.863997e+00 5.072342e-09 0
5.863997e+00 4.864383e-09 0
5.863997e+00 4.680225e-09 0
5.863997e+00 4.539203e-09 0
5.863997e+00 4.454686e-09 0
5.863997e+00 4.429125e-09 0
5.863997e+00 4.453392e-09 0
5.863997e+00 4.509621e-09 0
5.863997e+00 4.576416e-09 0
5.863997e+00 4.636973e-09 0
5.863997e+00 4.680960e-09 0
5.863997e+00 4.703780e-09 0
5.863997e+00 4.706386e-09 0
5.863997e+00 4.692406e-09 0
5.863997e+00 4.666937e-09 0
5.863997e+00 4.634269e-09 0
5.863997e+00 4.596735e-09 0
5.863997e+00 4.554150e-09 0
5.863997e+00 4.505341e-09 0
5.863997e+00 4.451770e-09 0
5.863997e+00 4.399276e-09 0
5.863997e+00 4.356342e-09 0
5.863997e+00 4.329080e-09 0
5.863997e+00 4.316785e-09 0
5.863997e+00 4.312404e-09 0
5.863997e+00 4.307749e-09 0
5.863997e+00 4.298994e-09 0
5.863997e+00 4.287932e-09 0
5.863997e+00 4.278632e-09 0
5.863997e+00 4.273202e-09 0
5.863997e+00 4.270270e-09 0
5.863997e+00 4.266613e-09 0
5.863997e+00 4.259929e-09 0
5.863997e+00 4.250325e-09 0
5.863997e+00 4.239908e-09 0
5.863997e+00 4.231591e-09 0
5.863997e+00 4.228184e-09 0
5.863997e+00 4.231927e-09 0
5.863997e+00 4.244387e-09 0
5.863997e+00 4.266373e-09 0
5.863997e+00 4.297868e-09 0
5.863997e+00 4.338792e-09 0
5.863997e+00 4.389834e-09 0
5.863997e+00 4.452528e-09 0
5.863997e+00 4.528560e-09 0
5.863997e+00 4.618373e-09 0
5.863997e+00 4.720152e-09 0
5.863997e+00 4.830472e-09 0
5.863997e+00 4.946088e-09 0
5.863997e+00 5.065219e-09 0
5.863997e+00 5.187566e-09 0
5.863997e+00 5.312975e-09 0
5.863997e+00 5.440034e-09 0
5.863997e+00 5.566321e-09 0
5.863997e+00 5.689259e-09 0
5.863997e+00 5.806800e-09 0
5.863997e+00 5.917828e-09 0
5.863997e+00 6.021133e-09 0
5.863997e+00 6.115185e-09 0
5.863997e+00 6.198871e-09 0
5.863997e+00 6.272119e-09 0
5.863997e+00 6.334850e-09 0
5.863997e+00 6.386345e-09 0
5.863997e+00 6.425500e-09 0
5.863997e+00 6.451383e-09 0
5.863997e+00 6.464327e-09 0
5.863997e+00 6.465630e-09 0
5.863997e+00 6.456459e-09 0
5.863997e+00 6.437381e-09 0
5.863997e+00 6.408901e-09 0
5.863997e+00 6.371657e-09 0
5.863997e+00 6.326177e-09 0
5.863997e+00 6.272053e-09 0
5.863997e+00 6.207649e-09 0
5.863997e+00 6.129116e-09 0
5.863997e+00 6.029227e-09 0
5.863997e+00 5.892639e-09 0
5.863997e+00 5.687952e-09 0
5.863997e+00 5.346156e-09 0
5.863997e+00 4.716599e-09 0
5.863997e+00 3.622752e-09 0
5.863997e+00 2.941175e-09 0
8.467579e+00 1.368265e-08 0
8.467579e+00 3.081000e-08 0
8.467579e+00 5.214563e-08 0
8.467579e+00 4.981703e-08 0
8.467579e+00 3.359243e-08 0
8.467579e+00 1.768512e-08 0
8.467579e+00 1.118599e-08 0
8.467579e+00 1.476659e-08 0
8.467579e+00 2.259875e-08 0
8.467579e+00 2.787390e-08 0
8.467579e+00 2.749097e-08 0
8.467579e+00 2.268802e-08 0
8.467579e+00 1.700702e-08 0
8.467579e+00 1.337073e-08 0
8.467579e+00 1.252073e-08 0
8.467579e+00 1.333001e-08 0
8.467579e+00 1.403727e-08 0
8.467579e+00 1.360885e-08 0
8.467579e+00 1.208757e-08 0
8.467579e+00 1.010762e-08 0
8.467579e+00 8.335949e-09 0
8.467579e+00 7.113032e-09 0
8.467579e+00 6.439447e-09 0
8.467579e+00 6.180886e-09 0
8.467579e+00 6.226632e-09 0
8.467579e+00 6.501874e-09 0
8.467579e+00 6.906616e-09 0
8.467579e+00 7.307862e-09 0
8.467579e+00 7.616671e-09 0
8.467579e+00 7.862223e-09 0
8.467579e+00 8.170640e-09 0
8.467579e+00 8.658169e-09 0
8.467579e+00 9.335158e-09 0
8.467579e+00 1.010021e-08 0
8.467579e+00 1.081173e-08 0
8.467579e+00 1.136286e-08 0
8.467579e+00 1.170973e-08 0
8.467579e+00 1.186444e-08 0
8.467579e+00 1.188397e-08 0
8.467579e+00 1.185170e-08 0
8.467579e+00 1.182692e-08 0
8.467579e+00 1.178039e-08 0
8.467579e+00 1.159207e-08 0
8.467579e+00 1.116164e-08 0
8.467579e+00 1.056107e-08 0
8.467579e+00 1.006572e-08 0
8.467579e+00 9.972269e-09 0
8.467579e+00 1.032157e-08 0
8.467579e+00 1.079149e-08 0
8.467579e+00 1.091294e-08 0
8.467579e+00 1.046246e-08 0
8.467579e+00 9.688784e-09 0
8.467579e+00 9.138563e-09 0
8.467579e+00 9.209407e-09 0
8.467579e+00 9.815406e-09 0
8.467579e+00 1.045372e-08 0
8.467579e+00 1.061241e-08 0
8.467579e+00 1.015853e-08 0
8.467579e+00 9.390004e-09 0
8.467579e+00 8.750839e-09 0
8.467579e+00 8.483843e-09 0
8.467579e+00 8.496891e-09 0
8.467579e+00 8.508576e-09 0
8.467579e+00 8.303563e-09 0
8.467579e+00 7.867920e-09 0
8.467579e+00 7.342758e-09 0
8.467579e+00 6.884241e-09 0
8.467579e+00 6.556738e-09 0
8.467579e+00 6.326866e-09 0
8.467579e+00 6.119703e-09 0
8.467579e+00 5.883037e-09 0
8.467579e+00 5.606117e-09 0
8.467579e+00 5.302298e-09 0
8.467579e+00 4.985586e-09 0
8.467579e+00 4.654167e-09 0
8.467579e+00 4.298726e-09 0
8.467579e+00 3.914351e-09 0
8.467579e+00 3.510796e-09 0
8.467579e+00 3.111014e-09 0
8.467579e+00 2.749556e-09 0
8.467579e+00 2.466744e-09 0
8.467579e+00 2.289490e-09 0
8.467579e+00 2.222077e-09 0
8.467579e+00 2.248133e-09 0
8.467579e+00 2.339065e-09 0
8.467579e+00 2.465336e-09 0
8.467579e+00 2.602455e-09 0
8.467579e+00 2.733140e-09 0
8.467579e+00 2.847652e-09 0
8.467579e+00 2.941604e-09 0
8.467579e+00 3.014747e-09 0
8.467579e+00 3.069506e-09 0
8.467579e+00 3.109536e-09 0
8.467579e+00 3.136540e-09 0
8.467579e+00 3.150051e-09 0
8.467579e+00 3.149840e-09 0
8.467579e+00 3.138553e-09 0
8.467579e+00 3.124221e-09 0
8.467579e+00 3.116830e-09 0
8.467579e+00 3.121533e-09 0
8.467579e+00 3.135617e-09 0
8.467579e+00 3.151832e-09 0
8.467579e+00 3.164809e-09 0
8.467579e+00 3.174852e-09 0
8.467579e+00 3.186350e-09 0
8.467579e+00 3.203158e-09 0
8.467579e+00 3.225474e-09 0
8.467579e+00 3.250260e-09 0
8.467579e+00 3.274034e-09 0
8.467579e+00 3.295234e-09 0
8.467579e+00 3.314627e-09 0
8.467579e+00 3.334427e-09 0
8.467579e+00 3.357206e-09 0
8.467579e+00 3.385127e-09 0
8.467579e+00 3.419661e-09 0
8.467579e+00 3.461504e-09 0
8.467579e+00 3.510565e-09 0
8.467579e+00 3.566681e-09 0
8.467579e+00 3.630472e-09 0
8.467579e+00 3.703466e-09 0
8.467579e+00 3.787705e-09 0
8.467579e+00 3.884313e-09 0
8.467579e+00 3.992308e-09 0
8.467579e+00 4.108906e-09 0
8.467579e+00 4.230887e-09 0
8.467579e+00 4.356077e-09 0
8.467579e+00 4.483985e-09 0
8.467579e+00 4.614922e-09 0
8.467579e+00 4.748426e-09 0
8.467579e+00 4.882676e-09 0
8.467579e+00 5.014990e-09 0
8.467579e+00 5.143003e-09 0
8.467579e+00 5.265662e-09 0
8.467579e+00 5.382375e-09 0
8.467579e+00 5.492244e-09 0
8.467579e+00 5.594356e-09 0
8.467579e+00 5.687755e-09 0
8.467579e+00 5.771648e-09 0
8.467579e+00 5.845007e-09 0
8.467579e+00 5.906459e-09 0
8.467579e+00 5.954737e-09 0
8.467579e+00 5.989592e-09 0
8.467579e+00 6.011742e-09 0
8.467579e+00 6.021523e-09 0
8.467579e+00 6.018706e-09 0
8.467579e+00 6.003152e-09 0
8.467579e+00 5.975073e-09 0
8.467579e+00 5.934783e-09 0
8.467579e+00 5.882392e-09 0
8.467579e+00 5.817237e-09 0
8.467579e+00 5.736893e-09 0
8.467579e+00 5.636852e-09 0
8.467579e+00 5.509337e-09 0
8.467579e+00 5.341375e-09 0
8.467579e+00 5.110436e-09 0
8.467579e+00 4.784809e-09 0
8.467579e+00 4.337780e-09 0
8.467579e+00 3.909790e-09 0
8.467579e+00 3.738074e-09 0
1.085478e+01 1.065755e-08 0
1.085478e+01 2.139694e-08 0
1.085478e+01 3.142618e-08 0
1.085478e+01 2.202620e-08 0
1.085478e+01 5.903341e-09 0
1.085478e+01 -2.707473e-09 0
1.085478e+01 5.579551e-10 0
1.085478e+01 1.107402e-08 0
1.085478e+01 2.097556e-08 0
1.085478e+01 2.503668e-08 0
1.085478e+01 2.325136e-08 0
1.085478e+01 1.907264e-08 0
1.085478e+01 1.594215e-08 0
1.085478e+01 1.530471e-08 0
1.085478e+01 1.642743e-08 0
1.085478e+01 1.764878e-08 0
1.085478e+01 1.785940e-08 0
1.085478e+01 1.691953e-08 0
1.085478e+01 1.526571e-08 0
1.085478e+01 1.336389e-08 0
1.085478e+01 1.143865e-08 0
1.085478e+01 9.588202e-09 0
1.085478e+01 8.021337e-09 0
1.085478e+01 7.068812e-09 0
1.085478e+01 6.940092e-09 0
1.085478e+01 7.488502e-09 0
1.085478e+01 8.251349e-09 0
1.085478e+01 8.765481e-09 0
1.085478e+01 8.894522e-09 0
1.085478e+01 8.889211e-09 0
1.085478e+01 9.140942e-09 0
1.085478e+01 9.851052e-09 0
1.085478e+01 1.088769e-08 0
1.085478e+01 1.191265e-08 0
1.085478e+01 1.263022e-08 0
1.085478e+01 1.294714e-08 0
1.085478e+01 1.295892e-08 0
1.085478e+01 1.283685e-08 0
1.085478e+01 1.272734e-08 0
1.085478e+01 1.269937e-08 0
1.085478e+01 1.271476e-08 0
1.085478e+01 1.262645e-08 0
1.085478e+01 1.225786e-08 0
1.085478e+01 1.156896e-08 0
1.085478e+01 1.078498e-08 0
1.085478e+01 1.031449e-08 0
1.085478e+01 1.044362e-08 0
1.085478e+01 1.104222e-08 0
1.085478e+01 1.158521e-08 0
1.085478e+01 1.154473e-08 0
1.085478e+01 1.085110e-08 0
1.085478e+01 9.996525e-09 0
1.085478e+01 9.649292e-09 0
1.085478e+01 1.009670e-08 0
1.085478e+01 1.099919e-08 0
1.085478e+01 1.166986e-08 0
1.085478e+01 1.162476e-08 0
1.085478e+01 1.092679e-08 0
1.085478e+01 1.006308e-08 0
1.085478e+01 9.516053e-09 0
1.085478e+01 9.409211e-09 0
1.085478e+01 9.495449e-09 0
1.085478e+01 9.430000e-09 0
1.085478e+01 9.042630e-09 0
1.085478e+01 8.414900e-09 0
1.085478e+01 7.757696e-09 0
1.085478e+01 7.231277e-09 0
1.085478e+01 6.859848e-09 0
1.085478e+01 6.566864e-09 0
1.085478e+01 6.266935e-09 0
1.085478e+01 5.917981e-09 0
1.085478e+01 5.522956e-09 0
1.085478e+01 5.100534e-09 0
1.085478e+01 4.656180e-09 0