<?xml version="1.0"?>
<VTKFile type="StructuredGrid">
<StructuredGrid WholeExtent="0 128 0 128 0 0 ">
<Piece Extent="0 128 0 128 0 0 ">
<Points>
<DataArray type="Float64" format="ascii" NumberOfComponents="3">
0.000000e+00 0.000000e+00 0.000000e+00
7.812500e-03 0.000000e+00 0.000000e+00
1.562500e-02 0.000000e+00 0.000000e+00
2.343750e-02 0.000000e+00 0.000000e+00
3.125000e-02 0.000000e+00 0.000000e+00
3.906250e-02 0.000000e+00 0.000000e+00
4.687500e-02 0.000000e+00 0.000000e+00
5.468750e-02 0.000000e+00 0.000000e+00
6.250000e-02 0.000000e+00 0.000000e+00
7.031250e-02 0.000000e+00 0.000000e+00
7.812500e-02 0.000000e+00 0.000000e+00
8.593750e-02 0.000000e+00 0.000000e+00
9.375000e-02 0.000000e+00 0.000000e+00
1.015625e-01 0.000000e+00 0.000000e+00
1.093750e-01 0.000000e+00 0.000000e+00
1.171875e-01 0.000000e+00 0.000000e+00
1.250000e-01 0.000000e+00 0.000000e+00
1.328125e-01 0.000000e+00 0.000000e+00
1.406250e-01 0.000000e+00 0.000000e+00
1.484375e-01 0.000000e+00 0.000000e+00
1.562500e-01 0.000000e+00 0.000000e+00
1.640625e-01 0.000000e+00 0.000000e+00
1.718750e-01 0.000000e+00 0.000000e+00
1.796875e-01 0.000000e+00 0.000000e+00
1.875000e-01 0.000000e+00 0.000000e+00
1.953125e-01 0.000000e+00 0.000000e+00
2.031250e-01 0.000000e+00 0.000000e+00
2.109375e-01 0.000000e+00 0.000000e+00
2.187500e-01 0.000000e+00 0.000000e+00
2.265625e-01 0.000000e+00 0.000000e+00
2.343750e-01 0.000000e+00 0.000000e+00
2.421875e-01 0.000000e+00 0.000000e+00
2.500000e-01 0.000000e+00 0.000000e+00
2.578125e-01 0.000000e+00 0.000000e+00
2.656250e-01 0.000000e+00 0.000000e+00
2.734375e-01 0.000000e+00 0.000000e+00
2.812500e-01 0.000000e+00 0.000000e+00
2.890625e-01 0.000000e+00 0.000000e+00
2.968750e-01 0.000000e+00 0.000000e+00
3.046875e-01 0.000000e+00 0.000000e+00
3.125000e-01 0.000000e+00 0.000000e+00
3.203125e-01 0.000000e+00 0.000000e+00
3.281250e-01 0.000000e+00 0.000000e+00
3.359375e-01 0.000000e+00 0.000000e+00
3.437500e-01 0.000000e+00 0.000000e+00
3.515625e-01 0.000000e+00 0.000000e+00
3.593750e-01 0.000000e+00 0.000000e+00
3.671875e-01 0.000000e+00 0.000000e+00
3.750000e-01 0.000000e+00 0.000000e+00
3.828125e-01 0.000000e+00 0.000000e+00
3.906250e-01 0.000000e+00 0.000000e+00
3.984375e-01 0.000000e+00 0.000000e+00
4.062500e-01 0.000000e+00 0.000000e+00
4.140625e-01 0.000000e+00 0.000000e+00
4.218750e-01 0.000000e+00 0.000000e+00
4.296875e-01 0.000000e+00 0.000000e+00
4.375000e-01 0.000000e+00 0.000000e+00
4.453125e-01 0.000000e+00 0.000000e+00
4.531250e-01 0.000000e+00 0.000000e+00
4.609375e-01 0.000000e+00 0.000000e+00
4.687500e-01 0.000000e+00 0.000000e+00
4.765625e-01 0.000000e+00 0.000000e+00
4.843750e-01 0.000000e+00 0.000000e+00
4.921875e-01 0.000000e+00 0.000000e+00
5.000000e-01 0.000000e+00 0.000000e+00
5.078125e-01 0.000000e+00 0.000000e+00
5.156250e-01 0.000000e+00 0.000000e+00
5.234375e-01 0.000000e+00 0.000000e+00
5.312500e-01 0.000000e+00 0.000000e+00
5.390625e-01 0.000000e+00 0.000000e+00
5.468750e-01 0.000000e+00 0.000000e+00
5.546875e-01 0.000000e+00 0.000000e+00
5.625000e-01 0.000000e+00 0.000000e+00
5.703125e-01 0.000000e+00 0.000000e+00
5.781250e-01 0.000000e+00 0.000000e+00
5.859375e-01 0.000000e+00 0.000000e+00
5.937500e-01 0.000000e+00 0.000000e+00
6.015625e-01 0.000000e+00 0.000000e+00
6.093750e-01 0.000000e+00 0.000000e+00
6.171875e-01 0.000000e+00 0.000000e+00
6.250000e-01 0.000000e+00 0.000000e+00
6.328125e-01 0.000000e+00 0.000000e+00
6.406250e-01 0.000000e+00 0.000000e+00
6.484375e-01 0.000000e+00 0.000000e+00
6.562500e-01 0.000000e+00 0.000000e+00
6.640625e-01 0.000000e+00 0.000000e+00
6.718750e-01 0.000000e+00 0.000000e+00
6.796875e-01 0.000000e+00 0.000000e+00
6.875000e-01 0.000000e+00 0.000000e+00
6.953125e-01 0.000000e+00 0.000000e+00
7.031250e-01 0.000000e+00 0.000000e+00
7.109375e-01 0.000000e+00 0.000000e+00
7.187500e-01 0.000000e+00 0.000000e+00
7.265625e-01 0.000000e+00 0.000000e+00
7.343750e-01 0.000000e+00 0.000000e+00
7.421875e-01 0.000000e+00 0.000000e+00
7.500000e-01 0.000000e+00 0.000000e+00
7.578125e-01 0.000000e+00 0.000000e+00
7.656250e-01 0.000000e+00 0.000000e+00
7.734375e-01 0.000000e+00 0.000000e+00
7.812500e-01 0.000000e+00 0.000000e+00
7.890625e-01 0.000000e+00 0.000000e+00
7.968750e-01 0.000000e+00 0.000000e+00
8.046875e-01 0.000000e+00 0.000000e+00
8.125000e-01 0.000000e+00 0.000000e+00
8.203125e-01 0.000000e+00 0.000000e+00
8.281250e-01 0.000000e+00 0.000000e+00
8.359375e-01 0.000000e+00 0.000000e+00
8.437500e-01 0.000000e+00 0.000000e+00
8.515625e-01 0.000000e+00 0.000000e+00
8.593750e-01 0.000000e+00 0.000000e+00
8.671875e-01 0.000000e+00 0.000000e+00
8.750000e-01 0.000000e+00 0.000000e+00
8.828125e-01 0.000000e+00 0.000000e+00
8.906250e-01 0.000000e+00 0.000000e+00
8.984375e-01 0.000000e+00 0.000000e+00
9.062500e-01 0.000000e+00 0.000000e+00
9.140625e-01 0.000000e+00 0.000000e+00
9.218750e-01 0.000000e+00 0.000000e+00
9.296875e-01 0.000000e+00 0.000000e+00
9.375000e-01 0.000000e+00 0.000000e+00
9.453125e-01 0.000000e+00 0.000000e+00
9.531250e-01 0.000000e+00 0.000000e+00
9.609375e-01 0.000000e+00 0.000000e+00
9.687500e-01 0.000000e+00 0.000000e+00
9.765625e-01 0.000000e+00 0.000000e+00
9.843750e-01 0.000000e+00 0.000000e+00
9.921875e-01 0.000000e+00 0.000000e+00
1.000000e+00 0.000000e+00 0.000000e+00
0.000000e+00 7.812500e-03 0.000000e+00
7.812500e-03 7.812500e-03 0.000000e+00
1.562500e-02 7.812500e-03 0.000000e+00
2.343750e-02 7.812500e-03 0.000000e+00
3.125000e-02 7.812500e-03 0.000000e+00
3.906250e-02 7.812500e-03 0.000000e+00
4.687500e-02 7.812500e-03 0.000000e+00
5.468750e-02 7.812500e-03 0.000000e+00
6.250000e-02 7.812500e-03 0.000000e+00
7.031250e-02 7.812500e-03 0.000000e+00
7.812500e-02 7.812500e-03 0.000000e+00
8.593750e-02 7.812500e-03 0.000000e+00
9.375000e-02 7.812500e-03 0.000000e+00
1.015625e-01 7.812500e-03 0.000000e+00
1.093750e-01 7.812500e-03 0.000000e+00
1.171875e-01 7.812500e-03 0.000000e+00
1.250000e-01 7.812500e-03 0.000000e+00
1.328125e-01 7.812500e-03 0.000000e+00
1.406250e-01 7.812500e-03 0.000000e+00
1.484375e-01 7.812500e-03 0.000000e+00
1.562500e-01 7.812500e-03 0.000000e+00
1.640625e-01 7.812500e-03 0.000000e+00
1.718750e-01 7.812500e-03 0.000000e+00
1.796875e-01 7.812500e-03 0.000000e+00
1.875000e-01 7.812500e-03 0.000000e+00
1.953125e-01 7.812500e-03 0.000000e+00
2.031250e-01 7.812500e-03 0.000000e+00
2.109375e-01 7.812500e-03 0.000000e+00
2.187500e-01 7.812500e-03 0.000000e+00
2.265625e-01 7.812500e-03 0.000000e+00
2.343750e-01 7.812500e-03 0.000000e+00
2.421875e-01 7.812500e-03 0.000000e+00
2.500000e-01 7.812500e-03 0.000000e+00
2.578125e-01 7.812500e-03 0.000000e+00
2.656250e-01 7.812500e-03 0.000000e+00
2.734375e-01 7.812500e-03 0.000000e+00
2.812500e-01 7.812500e-03 0.000000e+00
2.890625e-01 7.812500e-03 0.000000e+00
2.968750e-01 7.812500e-03 0.000000e+00
3.046875e-01 7.812500e-03 0.000000e+00
3.125000e-01 7.812500e-03 0.000000e+00
3.203125e-01 7.812500e-03 0.000000e+00
3.281250e-01 7.812500e-03 0.000000e+00
3.359375e-01 7.812500e-03 0.000000e+00
3.437500e-01 7.812500e-03 0.000000e+00
3.515625e-01 7.812500e-03 0.000000e+00
3.593750e-01 7.812500e-03 0.000000e+00
3.671875e-01 7.812500e-03 0.000000e+00
3.750000e-01 7.812500e-03 0.000000e+00
3.828125e-01 7.812500e-03 0.000000e+00
3.906250e-01 7.812500e-03 0.000000e+00
3.984375e-01 7.812500e-03 0.000000e+00
4.062500e-01 7.812500e-03 0.000000e+00
4.140625e-01 7.812500e-03 0.000000e+00
4.218750e-01 7.812500e-03 0.000000e+00
4.296875e-01 7.812500e-03 0.000000e+00
4.375000e-01 7.812500e-03 0.000000e+00
4.453125e-01 7.812500e-03 0.000000e+00
4.531250e-01 7.812500e-03 0.000000e+00
4.609375e-01 7.812500e-03 0.000000e+00
4.687500e-01 7.812500e-03 0.000000e+00
4.765625e-01 7.812500e-03 0.000000e+00
4.843750e-01 7.812500e-03 0.000000e+00
4.921875e-01 7.812500e-03 0.000000e+00
5.000000e-01 7.812500e-03 0.000000e+00
5.078125e-01 7.812500e-03 0.000000e+00
5.156250e-01 7.812500e-03 0.000000e+00
5.234375e-01 7.812500e-03 0.000000e+00
5.312500e-01 7.812500e-03 0.000000e+00
5.390625e-01 7.812500e-03 0.000000e+00
5.468750e-01 7.812500e-03 0.000000e+00
5.546875e-01 7.812500e-03 0.000000e+00
5.625000e-01 7.812500e-03 0.000000e+00
5.703125e-01 7.812500e-03 0.000000e+00
5.781250e-01 7.812500e-03 0.000000e+00
5.859375e-01 7.812500e-03 0.000000e+00
5.937500e-01 7.812500e-03 0.000000e+00
6.015625e-01 7.812500e-03 0.000000e+00
6.093750e-01 7.812500e-03 0.000000e+00
6.171875e-01 7.812500e-03 0.000000e+00
6.250000e-01 7.812500e-03 0.000000e+00
6.328125e-01 7.812500e-03 0.000000e+00
6.406250e-01 7.812500e-03 0.000000e+00
6.484375e-01 7.812500e-03 0.000000e+00
6.562500e-01 7.812500e-03 0.000000e+00
6.640625e-01 7.812500e-03 0.000000e+00
6.718750e-01 7.812500e-03 0.000000e+00
6.796875e-01 7.812500e-03 0.000000e+00
6.875000e-01 7.812500e-03 0.000000e+00
6.953125e-01 7.812500e-03 0.000000e+00
7.031250e-01 7.812500e-03 0.000000e+00
7.109375e-01 7.812500e-03 0.000000e+00
7.187500e-01 7.812500e-03 0.000000e+00
7.265625e-01 7.812500e-03 0.000000e+00
7.343750e-01 7.812500e-03 0.000000e+00
7.421875e-01 7.812500e-03 0.000000e+00
7.500000e-01 7.812500e-03 0.000000e+00
7.578125e-01 7.812500e-03 0.000000e+00
7.656250e-01 7.812500e-03 0.000000e+00
7.734375e-01 7.812500e-03 0.000000e+00
7.812500e-01 7.812500e-03 0.000000e+00
7.890625e-01 7.812500e-03 0.000000e+00
7.968750e-01 7.812500e-03 0.000000e+00
8.046875e-01 7.812500e-03 0.000000e+00
8.125000e-01 7.812500e-03 0.000000e+00
8.203125e-01 7.812500e-03 0.000000e+00
8.281250e-01 7.812500e-03 0.000000e+00
8.359375e-01 7.812500e-03 0.000000e+00
8.437500e-01 7.812500e-03 0.000000e+00
8.515625e-01 7.812500e-03 0.000000e+00
8.593750e-01 7.812500e-03 0.000000e+00
8.671875e-01 7.812500e-03 0.000000e+00
8.750000e-01 7.812500e-03 0.000000e+00
8.828125e-01 7.812500e-03 0.000000e+00
8.906250e-01 7.812500e-03 0.000000e+00
8.984375e-01 7.812500e-03 0.000000e+00
9.062500e-01 7.812500e-03 0.000000e+00
9.140625e-01 7.812500e-03 0.000000e+00
9.218750e-01 7.812500e-03 0.000000e+00
9.296875e-01 7.812500e-03 0.000000e+00
9.375000e-01 7.812500e-03 0.000000e+00
9.453125e-01 7.812500e-03 0.000000e+00
[...]
<PointData>
<DataArray Name="Velocity" type="Float64" format="ascii" NumberOfComponents="3">
0.000000e+00 0.000000e+00 0
0.000000e+00 0.000000e+00 0
0.000000e+00 0.000000e+00 0
0.000000e+00 0.000000e+00 0
0.000000e+00 0.000000e+00 0
0.000000e+00 0.000000e+00 0
0.000000e+00 0.000000e+00 0
0.000000e+00 0.000000e+00 0
0.000000e+00 0.000000e+00 0
0.000000e+00 0.000000e+00 0
0.000000e+00 0.000000e+00 0
0.000000e+00 0.000000e+00 0
0.000000e+00 0.000000e+00 0
0.000000e+00 0.000000e+00 0
0.000000e+00 0.000000e+00 0
0.000000e+00 0.000000e+00 0
0.000000e+00 0.000000e+00 0
0.000000e+00 0.000000e+00 0
0.000000e+00 0.000000e+00 0
0.000000e+00 0.000000e+00 0
0.000000e+00 0.000000e+00 0
0.000000e+00 0.000000e+00 0
0.000000e+00 0.000000e+00 0
0.000000e+00 0.000000e+00 0
0.000000e+00 0.000000e+00 0
0.000000e+00 0.000000e+00 0
0.000000e+00 0.000000e+00 0
0.000000e+00 0.000000e+00 0
0.000000e+00 0.000000e+00 0
0.000000e+00 0.000000e+00 0
0.000000e+00 0.000000e+00 0
0.000000e+00 0.000000e+00 0
0.000000e+00 0.000000e+00 0
0.000000e+00 0.000000e+00 0
0.000000e+00 0.000000e+00 0
0.000000e+00 0.000000e+00 0
0.000000e+00 0.000000e+00 0
0.000000e+00 0.000000e+00 0
0.000000e+00 0.000000e+00 0
0.000000e+00 0.000000e+00 0
0.000000e+00 0.000000e+00 0
0.000000e+00 0.000000e+00 0
0.000000e+00 0.000000e+00 0
0.000000e+00 0.000000e+00 0
0.000000e+00 0.000000e+00 0
0.000000e+00 0.000000e+00 0
0.000000e+00 0.000000e+00 0
0.000000e+00 0.000000e+00 0
0.000000e+00 0.000000e+00 0
0.000000e+00 0.000000e+00 0
0.000000e+00 0.000000e+00 0
0.000000e+00 0.000000e+00 0
0.000000e+00 0.000000e+00 0
0.000000e+00 0.000000e+00 0
0.000000e+00 0.000000e+00 0
0.000000e+00 0.000000e+00 0
0.000000e+00 0.000000e+00 0
0.000000e+00 0.000000e+00 0
0.000000e+00 0.000000e+00 0
0.000000e+00 0.000000e+00 0
0.000000e+00 0.000000e+00 0
0.000000e+00 0.000000e+00 0
0.000000e+00 0.000000e+00 0
0.000000e+00 0.000000e+00 0
0.000000e+00 0.000000e+00 0
0.000000e+00 0.000000e+00 0
0.000000e+00 0.000000e+00 0
0.000000e+00 0.000000e+00 0
0.000000e+00 0.000000e+00 0
0.000000e+00 0.000000e+00 0
0.000000e+00 0.000000e+00 0
0.000000e+00 0.000000e+00 0
0.000000e+00 0.000000e+00 0
0.000000e+00 0.000000e+00 0
0.000000e+00 0.000000e+00 0
0.000000e+00 0.000000e+00 0
0.000000e+00 0.000000e+00 0
0.000000e+00 0.000000e+00 0
0.000000e+00 0.000000e+00 0
0.000000e+00 0.000000e+00 0
0.000000e+00 0.000000e+00 0
0.000000e+00 0.000000e+00 0
0.000000e+00 0.000000e+00 0
0.000000e+00 0.000000e+00 0
0.000000e+00 0.000000e+00 0
0.000000e+00 0.000000e+00 0
0.000000e+00 0.000000e+00 0
0.000000e+00 0.000000e+00 0
0.000000e+00 0.000000e+00 0
0.000000e+00 0.000000e+00 0
0.000000e+00 0.000000e+00 0
0.000000e+00 0.000000e+00 0
0.000000e+00 0.000000e+00 0
0.000000e+00 0.000000e+00 0
0.000000e+00 0.000000e+00 0
0.000000e+00 0.000000e+00 0
0.000000e+00 0.000000e+00 0
0.000000e+00 0.000000e+00 0
0.000000e+00 0.000000e+00 0
0.000000e+00 0.000000e+00 0
0.000000e+00 0.000000e+00 0
0.000000e+00 0.000000e+00 0
0.000000e+00 0.000000e+00 0
0.000000e+00 0.000000e+00 0
0.000000e+00 0.000000e+00 0
0.000000e+00 0.000000e+00 0
0.000000e+00 0.000000e+00 0
0.000000e+00 0.000000e+00 0
0.000000e+00 0.000000e+00 0
0.000000e+00 0.000000e+00 0
0.000000e+00 0.000000e+00 0
0.000000e+00 0.000000e+00 0
0.000000e+00 0.000000e+00 0
0.000000e+00 0.000000e+00 0
0.000000e+00 0.000000e+00 0
0.000000e+00 0.000000e+00 0
0.000000e+00 0.000000e+00 0
0.000000e+00 0.000000e+00 0
0.000000e+00 0.000000e+00 0
0.000000e+00 0.000000e+00 0
0.000000e+00 0.000000e+00 0
0.000000e+00 0.000000e+00 0
0.000000e+00 0.000000e+00 0
0.000000e+00 0.000000e+00 0
0.000000e+00 0.000000e+00 0
0.000000e+00 0.000000e+00 0
0.000000e+00 0.000000e+00 0
0.000000e+00 0.000000e+00 0
0.000000e+00 0.000000e+00 0
0.000000e+00 0.000000e+00 0
2.143811e-05 -6.940502e-06 0
5.741770e-05 -3.696817e-05 0
1.183317e-04 -5.657955e-05 0
1.960920e-04 -6.372387e-05 0
2.821755e-04 -6.049508e-05 0
3.684942e-04 -5.071932e-05 0
4.480009e-04 -3.853373e-05 0
5.152673e-04 -2.728881e-05 0
5.668675e-04 -1.885766e-05 0
6.013906e-04 -1.348780e-05 0
6.190476e-04 -1.016208e-05 0
6.210033e-04 -7.267215e-06 0
6.086485e-04 -3.293868e-06 0
5.830235e-04 2.667378e-06 0
5.445078e-04 1.074694e-05 0
4.927973e-04 2.041921e-05 0
4.270890e-04 3.081526e-05 0
3.463501e-04 4.107183e-05 0
2.495803e-04 5.060409e-05 0
1.359360e-04 5.921619e-05 0
4.805071e-06 6.708634e-05 0
-1.442664e-04 7.463791e-05 0
-3.116943e-04 8.236672e-05 0
-4.979487e-04 9.071283e-05 0
-7.036219e-04 9.996700e-05 0
-9.294503e-04 1.102461e-04 0
-1.176293e-03 1.215202e-04 0
-1.445085e-03 1.336678e-04 0
-1.736789e-03 1.465285e-04 0
-2.052351e-03 1.599374e-04 0
-2.392675e-03 1.737393e-04 0
-2.758603e-03 1.877912e-04 0
-3.150893e-03 2.019656e-04 0
-3.570189e-03 2.161631e-04 0
-4.016981e-03 2.303316e-04 0
-4.491570e-03 2.444812e-04 0
-4.994045e-03 2.586807e-04 0
-5.524285e-03 2.730288e-04 0
-6.081976e-03 2.876052e-04 0
-6.666640e-03 3.024184e-04 0
-7.277656e-03 3.173689e-04 0
-7.914254e-03 3.322447e-04 0
-8.575484e-03 3.467517e-04 0
-9.260167e-03 3.605672e-04 0
-9.966839e-03 3.733984e-04 0
-1.069370e-02 3.850242e-04 0
-1.143860e-02 3.953080e-04 0
-1.219902e-02 4.041802e-04 0
-1.297212e-02 4.116003e-04 0
-1.375475e-02 4.175145e-04 0
-1.454352e-02 4.218235e-04 0
-1.533476e-02 4.243706e-04 0
-1.612456e-02 4.249506e-04 0
-1.690878e-02 4.233333e-04 0
-1.768304e-02 4.192921e-04 0
-1.844271e-02 4.126276e-04 0
-1.918292e-02 4.031802e-04 0
-1.989861e-02 3.908310e-04 0
-2.058451e-02 3.754932e-04 0
-2.123524e-02 3.571001e-04 0
-2.184531e-02 3.355947e-04 0
-2.240917e-02 3.109246e-04 0
-2.292124e-02 2.830425e-04 0
-2.337600e-02 2.519125e-04 0
-2.376796e-02 2.175194e-04 0
-2.409177e-02 1.798807e-04 0
-2.434228e-02 1.390646e-04 0
-2.451471e-02 9.522444e-05 0
-2.460480e-02 4.870282e-05 0
-2.460921e-02 5.662056e-07 0
-2.452556e-02 -4.887102e-05 0
-2.435065e-02 -1.001742e-04 0
-2.408166e-02 -1.532158e-04 0
-2.371647e-02 -2.075640e-04 0
-2.325382e-02 -2.626887e-04 0
-2.269339e-02 -3.180211e-04 0
-2.203581e-02 -3.729658e-04 0
-2.128274e-02 -4.269024e-04 0
-2.043688e-02 -4.791872e-04 0
-1.950201e-02 -5.291581e-04 0
-1.848298e-02 -5.761417e-04 0
-1.738576e-02 -6.194625e-04 0
-1.621739e-02 -6.584545e-04 0
-1.498598e-02 -6.924742e-04 0
-1.370063e-02 -7.209152e-04 0
-1.237138e-02 -7.432240e-04 0
-1.100912e-02 -7.589167e-04 0
-9.625446e-03 -7.675959e-04 0
-8.232531e-03 -7.689663e-04 0
-6.842958e-03 -7.628482e-04 0
-5.469533e-03 -7.491848e-04 0
-4.125092e-03 -7.280360e-04 0
-2.822307e-03 -6.995440e-04 0
-1.573535e-03 -6.638407e-04 0
-3.907256e-04 -6.208917e-04 0
7.145467e-04 -5.717053e-04 0
1.730936e-03 -5.181114e-04 0
2.651309e-03 -4.612320e-04 0
3.470150e-03 -4.019360e-04 0
4.183591e-03 -3.412331e-04 0
4.789509e-03 -2.801568e-04 0
5.287481e-03 -2.197203e-04 0
5.678789e-03 -1.609060e-04 0
5.966362e-03 -1.046327e-04 0
6.154652e-03 -5.171842e-05 0
6.249447e-03 -2.822465e-06 0
6.257622e-03 4.173541e-05 0
6.186700e-03 8.175478e-05 0
6.044534e-03 1.170732e-04 0
5.839160e-03 1.477482e-04 0
5.578577e-03 1.739334e-04 0
5.270602e-03 1.958399e-04 0
4.922776e-03 2.137119e-04 0
4.542311e-03 2.278025e-04 0
4.136092e-03 2.383436e-04 0
3.710729e-03 2.455111e-04 0
3.272668e-03 2.493838e-04 0
2.828383e-03 2.498955e-04 0
2.384626e-03 2.467827e-04 0
1.948768e-03 2.395277e-04 0
1.529181e-03 2.273049e-04 0
1.135662e-03 2.089474e-04 0
7.797781e-04 1.829814e-04 0
4.749607e-04 1.478601e-04 0
2.358883e-04 1.027721e-04 0
7.620288e-05 5.007351e-05 0
2.461869e-06 2.185921e-06 0
0.000000e+00 0.000000e+00 0
0.000000e+00 0.000000e+00 0
2.922406e-05 -6.133713e-05 0
1.042309e-04 -1.227464e-04 0
2.147562e-04 -1.597832e-04 0
3.456273e-04 -1.725663e-04 0
4.823822e-04 -1.667151e-04 0
6.125841e-04 -1.490965e-04 0
7.266319e-04 -1.256961e-04 0
8.180266e-04 -1.006098e-04 0
8.831297e-04 -7.582440e-05 0
9.205226e-04 -5.158940e-05 0
9.301562e-04 -2.712949e-05 0
9.125174e-04 -1.413172e-06 0
8.680023e-04 2.626353e-05 0
7.965754e-04 5.601266e-05 0
6.976890e-04 8.740268e-05 0
5.704070e-04 1.197110e-04 0
4.136080e-04 1.522390e-04 0
2.261320e-04 1.845451e-04 0
6.934853e-06 2.165815e-04 0
-2.449392e-04 2.486446e-04 0
-5.304438e-04 2.812432e-04 0
-8.505853e-04 3.149916e-04 0
-1.206517e-03 3.504381e-04 0
-1.599562e-03 3.879564e-04 0
-2.031204e-03 4.277288e-04 0
-2.503041e-03 4.697693e-04 0
-3.016729e-03 5.139742e-04 0
-3.573917e-03 5.601737e-04 0
-4.176201e-03 6.081663e-04 0
-4.825087e-03 6.577347e-04 0
-5.521958e-03 7.086498e-04 0
-6.268041e-03 7.606758e-04 0
-7.064358e-03 8.135840e-04 0
-7.911674e-03 8.671725e-04 0
-8.810452e-03 9.212802e-04 0
-9.760821e-03 9.757817e-04 0
-1.076256e-02 1.030555e-03 0
-1.181513e-02 1.085431e-03 0
-1.291762e-02 1.140141e-03 0
-1.406884e-02 1.194277e-03 0
-1.526721e-02 1.247296e-03 0
-1.651075e-02 1.298548e-03 0
-1.779702e-02 1.347341e-03 0
-1.912307e-02 1.392996e-03 0
-2.048538e-02 1.434898e-03 0
-2.187983e-02 1.472505e-03 0
-2.330176e-02 1.505336e-03 0
-2.474595e-02 1.532928e-03 0
-2.620668e-02 1.554804e-03 0
-2.767776e-02 1.570439e-03 0
-2.915255e-02 1.579258e-03 0
-3.062395e-02 1.580649e-03 0
-3.208447e-02 1.573994e-03 0
-3.352618e-02 1.558704e-03 0
-3.494077e-02 1.534243e-03 0
-3.631961e-02 1.500148e-03 0
-3.765372e-02 1.456029e-03 0
-3.893392e-02 1.401564e-03 0
-4.015082e-02 1.336490e-03 0
-4.129495e-02 1.260599e-03 0
-4.235678e-02 1.173734e-03 0
-4.332679e-02 1.075797e-03 0
-4.419558e-02 9.667630e-04 0
-4.495390e-02 8.466983e-04 0
-4.559280e-02 7.157811e-04 0
-4.610370e-02 5.743408e-04 0
-4.647855e-02 4.229283e-04 0
-4.671006e-02 2.624562e-04 0
-4.679204e-02 9.440262e-05 0
-4.672011e-02 -7.937098e-05 0
-4.648851e-02 -2.587116e-04 0
-4.609235e-02 -4.440651e-04 0
-4.552789e-02 -6.343582e-04 0
-4.479270e-02 -8.280138e-04 0
-4.388576e-02 -1.023250e-03 0
-4.280755e-02 -1.218171e-03 0
-4.156014e-02 -1.410796e-03 0
-4.014722e-02 -1.599070e-03 0
-3.857415e-02 -1.780874e-03 0
-3.684804e-02 -1.954044e-03 0
-3.497768e-02 -2.116393e-03 0
-3.297361e-02 -2.265741e-03 0
-3.084806e-02 -2.399944e-03 0
-2.861494e-02 -2.516939e-03 0
-2.628968e-02 -2.614785e-03 0
-2.388922e-02 -2.691705e-03 0
-2.143182e-02 -2.746142e-03 0
-1.893686e-02 -2.776799e-03 0
-1.642468e-02 -2.782695e-03 0
-1.391633e-02 -2.763198e-03 0
-1.143326e-02 -2.718057e-03 0
-8.997044e-03 -2.647407e-03 0
-6.629092e-03 -2.551727e-03 0
-4.350284e-03 -2.431742e-03 0
-2.180660e-03 -2.288234e-03 0
-1.391063e-04 -2.121810e-03 0
1.755365e-03 -1.936906e-03 0
3.484943e-03 -1.739355e-03 0
5.039221e-03 -1.532422e-03 0
6.410461e-03 -1.319497e-03 0
7.593806e-03 -1.104025e-03 0
8.587149e-03 -8.894138e-04 0
9.391240e-03 -6.790117e-04 0
1.000964e-02 -4.759890e-04 0
1.044856e-02 -2.832055e-04 0
1.071655e-02 -1.030846e-04 0
1.082423e-02 6.263921e-05 0
1.078404e-02 2.129868e-04 0
1.060914e-02 3.474448e-04 0
1.031324e-02 4.658673e-04 0
9.910239e-03 5.684730e-04 0
9.413960e-03 6.557205e-04 0
8.837994e-03 7.282134e-04 0
8.195582e-03 7.866076e-04 0
7.499588e-03 8.315080e-04 0
6.762569e-03 8.633515e-04 0
5.996932e-03 8.822748e-04 0
5.215208e-03 8.879713e-04 0
4.430417e-03 8.795448e-04 0
3.656526e-03 8.553756e-04 0
2.908949e-03 8.130369e-04 0
2.205017e-03 7.493342e-04 0
1.564235e-03 6.606325e-04 0
1.008056e-03 5.438215e-04 0
5.586369e-04 3.986895e-04 0
2.358116e-04 2.333582e-04 0
5.131355e-05 7.613472e-05 0
0.000000e+00 0.000000e+00 0
0.000000e+00 0.000000e+00 0
3.445793e-05 -1.368482e-04 0
1.372336e-04 -2.367239e-04 0
2.776748e-04 -2.939939e-04 0
4.351722e-04 -3.132134e-04 0
5.921057e-04 -3.034374e-04 0
7.344147e-04 -2.740211e-04 0
8.519274e-04 -2.325189e-04 0
9.381008e-04 -1.839669e-04 0
9.892658e-04 -1.310763e-04 0
1.003628e-03 -7.491991e-05 0
9.802974e-04 -1.575213e-05 0
9.185978e-04 4.631090e-05 0
8.176742e-04 1.109184e-04 0
6.763933e-04 1.774531e-04 0
4.934130e-04 2.451999e-04 0
2.673150e-04 3.135704e-04 0
-3.211693e-06 3.823265e-04 0
-3.193976e-04 4.516022e-04 0
-6.824571e-04 5.218662e-04 0
-1.093651e-03 5.938626e-04 0
-1.554428e-03 6.683909e-04 0
-2.066468e-03 7.461514e-04 0
-2.631675e-03 8.276604e-04 0
-3.252145e-03 9.132104e-04 0
-3.930100e-03 1.002892e-03 0
-4.667795e-03 1.096641e-03 0
-5.467451e-03 1.194289e-03 0
-6.331190e-03 1.295596e-03 0
-7.260994e-03 1.400262e-03 0
-8.258660e-03 1.507939e-03 0
-9.325756e-03 1.618233e-03 0
-1.046355e-02 1.730722e-03 0
-1.167297e-02 1.844978e-03 0
-1.295451e-02 1.960577e-03 0
-1.430820e-02 2.077096e-03 0
-1.573364e-02 2.194074e-03 0
-1.722990e-02 2.310965e-03 0
-1.879562e-02 2.427076e-03 0
-2.042894e-02 2.541542e-03 0
-2.212747e-02 2.653323e-03 0
-2.388822e-02 2.761247e-03 0
-2.570756e-02 2.864075e-03 0
-2.758111e-02 2.960565e-03 0
-2.950376e-02 3.049524e-03 0
-3.146961e-02 3.129816e-03 0
-3.347206e-02 3.200355e-03 0
-3.550377e-02 3.260069e-03 0
-3.755681e-02 3.307865e-03 0
-3.962258e-02 3.342610e-03 0
-4.169196e-02 3.363138e-03 0
-4.375523e-02 3.368267e-03 0
-4.580217e-02 3.356845e-03 0
-4.782203e-02 3.327786e-03 0
-4.980363e-02 3.280104e-03 0
-5.173540e-02 3.212932e-03 0
-5.360543e-02 3.125526e-03 0
-5.540158e-02 3.017266e-03 0
-5.711158e-02 2.887649e-03 0
-5.872308e-02 2.736287e-03 0
-6.022375e-02 2.562916e-03 0
-6.160139e-02 2.367406e-03 0
-6.284397e-02 2.149784e-03 0
-6.393977e-02 1.910253e-03 0
-6.487748e-02 1.649224e-03 0
-6.564631e-02 1.367356e-03 0
-6.623614e-02 1.065608e-03 0
-6.663771e-02 7.453539e-04 0
-6.684277e-02 4.086133e-04 0
-6.684429e-02 5.863222e-05 0
-6.663692e-02 -3.030839e-04 0
-6.621320e-02 -6.767325e-04 0
-6.556823e-02 -1.060875e-03 0
-6.469878e-02 -1.452926e-03 0
-6.360326e-02 -1.849740e-03 0
-6.228182e-02 -2.247870e-03 0
-6.073641e-02 -2.643666e-03 0
-5.897085e-02 -3.033325e-03 0
-5.699088e-02 -3.412914e-03 0
-5.480426e-02 -3.778401e-03 0
-5.242071e-02 -4.125685e-03 0
-4.985199e-02 -4.450637e-03 0
-4.711186e-02 -4.749155e-03 0
-4.421604e-02 -5.017220e-03 0
-4.118218e-02 -5.250960e-03 0
-3.802976e-02 -5.446731e-03 0
-3.477997e-02 -5.601188e-03 0
-3.145559e-02 -5.711377e-03 0
-2.808076e-02 -5.774811e-03 0
-2.468081e-02 -5.789564e-03 0
-2.128195e-02 -5.754336e-03 0
-1.791104e-02 -5.668523e-03 0
-1.459520e-02 -5.532248e-03 0
-1.136146e-02 -5.346351e-03 0
-8.236380e-03 -5.112321e-03 0
-5.245553e-03 -4.832122e-03 0
-2.413145e-03 -4.507788e-03 0
2.385817e-04 -4.142223e-03 0
2.685369e-03 -3.745154e-03 0
4.905827e-03 -3.327522e-03 0
6.888368e-03 -2.895885e-03 0
8.625066e-03 -2.456910e-03 0
1.011115e-02 -2.017215e-03 0
1.134543e-02 -1.583454e-03 0
1.233037e-02 -1.162001e-03 0
1.307188e-02 -7.586711e-04 0
1.357902e-02 -3.785320e-04 0
1.386371e-02 -2.579079e-05 0
1.394049e-02 2.968082e-04 0
1.382603e-02 5.878411e-04 0
1.353797e-02 8.466241e-04 0
1.309443e-02 1.073189e-03 0
1.251377e-02 1.268055e-03 0
1.181429e-02 1.432060e-03 0
1.101412e-02 1.566178e-03 0
1.013115e-02 1.671326e-03 0
9.183066e-03 1.748136e-03 0
8.187508e-03 1.796713e-03 0
7.162336e-03 1.816379e-03 0
6.126005e-03 1.805434e-03 0
5.098015e-03 1.760965e-03 0
4.099377e-03 1.678784e-03 0
3.152990e-03 1.553632e-03 0
2.283778e-03 1.379913e-03 0
1.518337e-03 1.153429e-03 0
8.838136e-04 8.749872e-04 0
4.058301e-04 5.573676e-04 0
1.058369e-04 2.379682e-04 0
0.000000e+00 0.000000e+00 0
0.000000e+00 0.000000e+00 0
3.789710e-05 -2.211583e-04 0
1.549716e-04 -3.632073e-04 0
3.062308e-04 -4.406902e-04 0
4.672642e-04 -4.642700e-04 0
6.190586e-04 -4.465964e-04 0
7.475290e-04 -3.992514e-04 0
8.429901e-04 -3.313087e-04 0
8.992650e-04 -2.490842e-04 0
9.125534e-04 -1.566282e-04 0
8.803468e-04 -5.649356e-05 0
8.006040e-04 4.952395e-05 0
6.713951e-04 1.599208e-04 0
4.906866e-04 2.733587e-04 0
2.564312e-04 3.887502e-04 0
-3.323780e-05 5.054265e-04 0
-3.800025e-04 6.231645e-04 0
-7.853682e-04 7.422431e-04 0
-1.250754e-03 8.634169e-04 0
-1.777713e-03 9.876775e-04 0
-2.368022e-03 1.116070e-03 0
-3.023749e-03 1.249529e-03 0
-3.747265e-03 1.388768e-03 0
-4.541180e-03 1.534241e-03 0
-5.408240e-03 1.686159e-03 0
-6.351224e-03 1.844528e-03 0
-7.372839e-03 2.009200e-03 0
-8.475648e-03 2.179902e-03 0
-9.662016e-03 2.356252e-03 0
-1.093406e-02 2.537760e-03 0
-1.229358e-02 2.723843e-03 0
-1.374202e-02 2.913838e-03 0
-1.528033e-02 3.107029e-03 0
-1.690897e-02 3.302659e-03 0
-1.862781e-02 3.499920e-03 0
-2.043611e-02 3.697919e-03 0
-2.233255e-02 3.895622e-03 0
-2.431520e-02 4.091803e-03 0
-2.638152e-02 4.285010e-03 0
-2.852827e-02 4.473578e-03 0
-3.075147e-02 4.655678e-03 0
-3.304632e-02 4.829387e-03 0
-3.540713e-02 4.992759e-03 0
-3.782728e-02 5.143880e-03 0
-4.029925e-02 5.280882e-03 0
-4.281466e-02 5.401934e-03 0
-4.536433e-02 5.505215e-03 0
-4.793833e-02 5.588883e-03 0
-5.052605e-02 5.651070e-03 0
-5.311625e-02 5.689897e-03 0
-5.569705e-02 5.703509e-03 0
-5.825602e-02 5.690124e-03 0
-6.078019e-02 5.648081e-03 0
-6.325613e-02 5.575878e-03 0
-6.567003e-02 5.472193e-03 0
-6.800779e-02 5.335894e-03 0
-7.025512e-02 5.166037e-03 0
-7.239769e-02 4.961870e-03 0
-7.442115e-02 4.722832e-03 0
-7.631131e-02 4.448566e-03 0
-7.805417e-02 4.138938e-03 0
-7.963606e-02 3.794056e-03 0
-8.104370e-02 3.414303e-03 0
-8.226434e-02 3.000361e-03 0
-8.328587e-02 2.553255e-03 0
-8.409693e-02 2.074394e-03 0
-8.468709e-02 1.565646e-03 0
-8.504699e-02 1.029434e-03 0
-8.516842e-02 4.689069e-04 0
-8.504425e-02 -1.115613e-04 0
-8.466732e-02 -7.105414e-04 0
-8.403152e-02 -1.327460e-03 0
-8.313294e-02 -1.958534e-03 0
-8.196954e-02 -2.599354e-03 0
-8.054111e-02 -3.244982e-03 0
-7.884929e-02 -3.890111e-03 0
-7.689757e-02 -4.529164e-03 0
-7.469145e-02 -5.156348e-03 0
-7.223840e-02 -5.765694e-03 0
-6.954794e-02 -6.351100e-03 0
-6.663165e-02 -6.906383e-03 0
-6.350319e-02 -7.425334e-03 0
-6.017826e-02 -7.901794e-03 0
-5.667461e-02 -8.329728e-03 0
-5.301196e-02 -8.703323e-03 0
-4.921197e-02 -9.017087e-03 0
-4.529807e-02 -9.265959e-03 0
-4.129540e-02 -9.445426e-03 0
-3.723061e-02 -9.551643e-03 0
-3.313167e-02 -9.581554e-03 0
-2.902765e-02 -9.533007e-03 0
-2.494839e-02 -9.404856e-03 0
-2.092424e-02 -9.197035e-03 0
-1.698568e-02 -8.910600e-03 0
-1.316287e-02 -8.547713e-03 0
-9.485195e-03 -8.111537e-03 0
-5.980668e-03 -7.606016e-03 0
-2.675147e-03 -7.035496e-03 0
4.073457e-04 -6.406675e-03 0
3.239540e-03 -5.735492e-03 0
5.796910e-03 -5.038803e-03 0
8.068433e-03 -4.326865e-03 0
1.004596e-02 -3.609830e-03 0
1.172541e-02 -2.898278e-03 0
1.310690e-02 -2.202478e-03 0
1.419464e-02 -1.531899e-03 0
1.499656e-02 -8.949540e-04 0
1.552409e-02 -2.988594e-04 0
1.579182e-02 2.506400e-04 0
1.581773e-02 7.499381e-04 0
1.562205e-02 1.197433e-03 0
1.522590e-02 1.592640e-03 0
1.465093e-02 1.935836e-03 0
1.391906e-02 2.227832e-03 0
1.305230e-02 2.469711e-03 0
1.207264e-02 2.662525e-03 0
1.100204e-02 2.806958e-03 0
9.862550e-03 2.902973e-03 0
8.676533e-03 2.949443e-03 0
7.466988e-03 2.943834e-03 0
6.257924e-03 2.881973e-03 0
5.074752e-03 2.758032e-03 0
3.944596e-03 2.564904e-03 0
2.896425e-03 2.295256e-03 0
1.960888e-03 1.943757e-03 0
1.169853e-03 1.511167e-03 0
5.559333e-04 1.011306e-03 0
1.529865e-04 4.819355e-04 0
0.000000e+00 0.000000e+00 0
0.000000e+00 0.000000e+00 0
4.064722e-05 -3.042441e-04 0
1.583723e-04 -4.886114e-04 0
3.023832e-04 -5.837416e-04 0
4.465417e-04 -6.069858e-04 0
5.718166e-04 -5.748088e-04 0
6.649193e-04 -5.011732e-04 0
7.169619e-04 -3.969927e-04 0
7.220540e-04 -2.703631e-04 0
6.760051e-04 -1.272096e-04 0
5.753820e-04 2.803087e-05 0
4.170446e-04 1.918242e-04 0
1.979535e-04 3.613816e-04 0
-8.474778e-05 5.347091e-04 0
-4.336587e-04 7.105297e-04 0
-8.509917e-04 8.883965e-04 0
-1.338629e-03 1.068651e-03 0
-1.898349e-03 1.252186e-03 0
-2.531977e-03 1.440241e-03 0
-3.241562e-03 1.634146e-03 0
-4.029504e-03 1.835117e-03 0
-4.898550e-03 2.044128e-03 0
-5.851737e-03 2.261850e-03 0
-6.892268e-03 2.488661e-03 0
-8.023372e-03 2.724678e-03 0
-9.248189e-03 2.969802e-03 0
-1.056967e-02 3.223748e-03 0
-1.199050e-02 3.486050e-03 0
-1.351305e-02 3.756077e-03 0
-1.513929e-02 4.033034e-03 0
-1.687075e-02 4.315986e-03 0
-1.870838e-02 4.603885e-03 0
-2.065250e-02 4.895580e-03 0
-2.270274e-02 5.189814e-03 0
-2.485803e-02 5.485181e-03 0
-2.711655e-02 5.780077e-03 0
-2.947580e-02 6.072645e-03 0
-3.193250e-02 6.360750e-03 0
-3.448257e-02 6.641999e-03 0
-3.712106e-02 6.913796e-03 0
-3.984205e-02 7.173424e-03 0
-4.263860e-02 7.418126e-03 0
-4.550272e-02 7.645159e-03 0
-4.842540e-02 7.851820e-03 0
-5.139668e-02 8.035431e-03 0
-5.440571e-02 8.193324e-03 0