<?xml version="1.0"?>
<VTKFile type="StructuredGrid">
<StructuredGrid WholeExtent="0 16 0 16 0 0 ">
<Piece Extent="0 16 0 16 0 0 ">
<Points>
<DataArray type="Float64" format="ascii" NumberOfComponents="3">
0.000000e+00 0.000000e+00 0.000000e+00
6.250000e-02 0.000000e+00 0.000000e+00
1.250000e-01 0.000000e+00 0.000000e+00
1.875000e-01 0.000000e+00 0.000000e+00
2.500000e-01 0.000000e+00 0.000000e+00
3.125000e-01 0.000000e+00 0.000000e+00
3.750000e-01 0.000000e+00 0.000000e+00
4.375000e-01 0.000000e+00 0.000000e+00
5.000000e-01 0.000000e+00 0.000000e+00
5.625000e-01 0.000000e+00 0.000000e+00
6.250000e-01 0.000000e+00 0.000000e+00
6.875000e-01 0.000000e+00 0.000000e+00
7.500000e-01 0.000000e+00 0.000000e+00
8.125000e-01 0.000000e+00 0.000000e+00
8.750000e-01 0.000000e+00 0.000000e+00
9.375000e-01 0.000000e+00 0.000000e+00
1.000000e+00 0.000000e+00 0.000000e+00
0.000000e+00 6.250000e-02 0.000000e+00
6.250000e-02 6.250000e-02 0.000000e+00
1.250000e-01 6.250000e-02 0.000000e+00
1.875000e-01 6.250000e-02 0.000000e+00
2.500000e-01 6.250000e-02 0.000000e+00
3.125000e-01 6.250000e-02 0.000000e+00
3.750000e-01 6.250000e-02 0.000000e+00
4.375000e-01 6.250000e-02 0.000000e+00
5.000000e-01 6.250000e-02 0.000000e+00
5.625000e-01 6.250000e-02 0.000000e+00
6.250000e-01 6.250000e-02 0.000000e+00
6.875000e-01 6.250000e-02 0.000000e+00
7.500000e-01 6.250000e-02 0.000000e+00
8.125000e-01 6.250000e-02 0.000000e+00
8.750000e-01 6.250000e-02 0.000000e+00
9.375000e-01 6.250000e-02 0.000000e+00
1.000000e+00 6.250000e-02 0.000000e+00
0.000000e+00 1.250000e-01 0.000000e+00
6.250000e-02 1.250000e-01 0.000000e+00
1.250000e-01 1.250000e-01 0.000000e+00
1.875000e-01 1.250000e-01 0.000000e+00
2.500000e-01 1.250000e-01 0.000000e+00
3.125000e-01 1.250000e-01 0.000000e+00
3.750000e-01 1.250000e-01 0.000000e+00
4.375000e-01 1.250000e-01 0.000000e+00
5.000000e-01 1.250000e-01 0.000000e+00
5.625000e-01 1.250000e-01 0.000000e+00
6.250000e-01 1.250000e-01 0.000000e+00
6.875000e-01 1.250000e-01 0.000000e+00
7.500000e-01 1.250000e-01 0.000000e+00
8.125000e-01 1.250000e-01 0.000000e+00
8.750000e-01 1.250000e-01 0.000000e+00
9.375000e-01 1.250000e-01 0.000000e+00
1.000000e+00 1.250000e-01 0.000000e+00
0.000000e+00 1.875000e-01 0.000000e+00
6.250000e-02 1.875000e-01 0.000000e+00
1.250000e-01 1.875000e-01 0.000000e+00
1.875000e-01 1.875000e-01 0.000000e+00
2.500000e-01 1.875000e-01 0.000000e+00
3.125000e-01 1.875000e-01 0.000000e+00
3.750000e-01 1.875000e-01 0.000000e+00
4.375000e-01 1.875000e-01 0.000000e+00
5.000000e-01 1.875000e-01 0.000000e+00
5.625000e-01 1.875000e-01 0.000000e+00
6.250000e-01 1.875000e-01 0.000000e+00
6.875000e-01 1.875000e-01 0.000000e+00
7.500000e-01 1.875000e-01 0.000000e+00
8.125000e-01 1.875000e-01 0.000000e+00
8.750000e-01 1.875000e-01 0.000000e+00
9.375000e-01 1.875000e-01 0.000000e+00
1.000000e+00 1.875000e-01 0.000000e+00
0.000000e+00 2.500000e-01 0.000000e+00
6.250000e-02 2.500000e-01 0.000000e+00
1.250000e-01 2.500000e-01 0.000000e+00
1.875000e-01 2.500000e-01 0.000000e+00
2.500000e-01 2.500000e-01 0.000000e+00
3.125000e-01 2.500000e-01 0.000000e+00
3.750000e-01 2.500000e-01 0.000000e+00
4.375000e-01 2.500000e-01 0.000000e+00
5.000000e-01 2.500000e-01 0.000000e+00
5.625000e-01 2.500000e-01 0.000000e+00
6.250000e-01 2.500000e-01 0.000000e+00
6.875000e-01 2.500000e-01 0.000000e+00
7.500000e-01 2.500000e-01 0.000000e+00
8.125000e-01 2.500000e-01 0.000000e+00
8.750000e-01 2.500000e-01 0.000000e+00
9.375000e-01 2.500000e-01 0.000000e+00
1.000000e+00 2.500000e-01 0.000000e+00
0.000000e+00 3.125000e-01 0.000000e+00
6.250000e-02 3.125000e-01 0.000000e+00
1.250000e-01 3.125000e-01 0.000000e+00
1.875000e-01 3.125000e-01 0.000000e+00
2.500000e-01 3.125000e-01 0.000000e+00
3.125000e-01 3.125000e-01 0.000000e+00
3.750000e-01 3.125000e-01 0.000000e+00
4.375000e-01 3.125000e-01 0.000000e+00
5.000000e-01 3.125000e-01 0.000000e+00
5.625000e-01 3.125000e-01 0.000000e+00
6.250000e-01 3.125000e-01 0.000000e+00
6.875000e-01 3.125000e-01 0.000000e+00
7.500000e-01 3.125000e-01 0.000000e+00
8.125000e-01 3.125000e-01 0.000000e+00
8.750000e-01 3.125000e-01 0.000000e+00
9.375000e-01 3.125000e-01 0.000000e+00
1.000000e+00 3.125000e-01 0.000000e+00
0.000000e+00 3.750000e-01 0.000000e+00
6.250000e-02 3.750000e-01 0.000000e+00
1.250000e-01 3.750000e-01 0.000000e+00
1.875000e-01 3.750000e-01 0.000000e+00
2.500000e-01 3.750000e-01 0.000000e+00
3.125000e-01 3.750000e-01 0.000000e+00
3.750000e-01 3.750000e-01 0.000000e+00
4.375000e-01 3.750000e-01 0.000000e+00
5.000000e-01 3.750000e-01 0.000000e+00
5.625000e-01 3.750000e-01 0.000000e+00
6.250000e-01 3.750000e-01 0.000000e+00
6.875000e-01 3.750000e-01 0.000000e+00
7.500000e-01 3.750000e-01 0.000000e+00
8.125000e-01 3.750000e-01 0.000000e+00
8.750000e-01 3.750000e-01 0.000000e+00
9.375000e-01 3.750000e-01 0.000000e+00
1.000000e+00 3.750000e-01 0.000000e+00
0.000000e+00 4.375000e-01 0.000000e+00
6.250000e-02 4.375000e-01 0.000000e+00
1.250000e-01 4.375000e-01 0.000000e+00
1.875000e-01 4.375000e-01 0.000000e+00
2.500000e-01 4.375000e-01 0.000000e+00
3.125000e-01 4.375000e-01 0.000000e+00
3.750000e-01 4.375000e-01 0.000000e+00
4.375000e-01 4.375000e-01 0.000000e+00
5.000000e-01 4.375000e-01 0.000000e+00
5.625000e-01 4.375000e-01 0.000000e+00
6.250000e-01 4.375000e-01 0.000000e+00
6.875000e-01 4.375000e-01 0.000000e+00
7.500000e-01 4.375000e-01 0.000000e+00
8.125000e-01 4.375000e-01 0.000000e+00
8.750000e-01 4.375000e-01 0.000000e+00
9.375000e-01 4.375000e-01 0.000000e+00
1.000000e+00 4.375000e-01 0.000000e+00
0.000000e+00 5.000000e-01 0.000000e+00
6.250000e-02 5.000000e-01 0.000000e+00
1.250000e-01 5.000000e-01 0.000000e+00
1.875000e-01 5.000000e-01 0.000000e+00
2.500000e-01 5.000000e-01 0.000000e+00
3.125000e-01 5.000000e-01 0.000000e+00
3.750000e-01 5.000000e-01 0.000000e+00
4.375000e-01 5.000000e-01 0.000000e+00
5.000000e-01 5.000000e-01 0.000000e+00
5.625000e-01 5.000000e-01 0.000000e+00
6.250000e-01 5.000000e-01 0.000000e+00
6.875000e-01 5.000000e-01 0.000000e+00
7.500000e-01 5.000000e-01 0.000000e+00
8.125000e-01 5.000000e-01 0.000000e+00
8.750000e-01 5.000000e-01 0.000000e+00
9.375000e-01 5.000000e-01 0.000000e+00
1.000000e+00 5.000000e-01 0.000000e+00
0.000000e+00 5.625000e-01 0.000000e+00
6.250000e-02 5.625000e-01 0.000000e+00
1.250000e-01 5.625000e-01 0.000000e+00
1.875000e-01 5.625000e-01 0.000000e+00
2.500000e-01 5.625000e-01 0.000000e+00
3.125000e-01 5.625000e-01 0.000000e+00
3.750000e-01 5.625000e-01 0.000000e+00
4.375000e-01 5.625000e-01 0.000000e+00
5.000000e-01 5.625000e-01 0.000000e+00
5.625000e-01 5.625000e-01 0.000000e+00
6.250000e-01 5.625000e-01 0.000000e+00
6.875000e-01 5.625000e-01 0.000000e+00
7.500000e-01 5.625000e-01 0.000000e+00
8.125000e-01 5.625000e-01 0.000000e+00
8.750000e-01 5.625000e-01 0.000000e+00
9.375000e-01 5.625000e-01 0.000000e+00
1.000000e+00 5.625000e-01 0.000000e+00
0.000000e+00 6.250000e-01 0.000000e+00
6.250000e-02 6.250000e-01 0.000000e+00
1.250000e-01 6.250000e-01 0.000000e+00
1.875000e-01 6.250000e-01 0.000000e+00
2.500000e-01 6.250000e-01 0.000000e+00
3.125000e-01 6.250000e-01 0.000000e+00
3.750000e-01 6.250000e-01 0.000000e+00
4.375000e-01 6.250000e-01 0.000000e+00
5.000000e-01 6.250000e-01 0.000000e+00
5.625000e-01 6.250000e-01 0.000000e+00
6.250000e-01 6.250000e-01 0.000000e+00
6.875000e-01 6.250000e-01 0.000000e+00
7.500000e-01 6.250000e-01 0.000000e+00
8.125000e-01 6.250000e-01 0.000000e+00
8.750000e-01 6.250000e-01 0.000000e+00
9.375000e-01 6.250000e-01 0.000000e+00
1.000000e+00 6.250000e-01 0.000000e+00
0.000000e+00 6.875000e-01 0.000000e+00
6.250000e-02 6.875000e-01 0.000000e+00
1.250000e-01 6.875000e-01 0.000000e+00
1.875000e-01 6.875000e-01 0.000000e+00
2.500000e-01 6.875000e-01 0.000000e+00
3.125000e-01 6.875000e-01 0.000000e+00
3.750000e-01 6.875000e-01 0.000000e+00
4.375000e-01 6.875000e-01 0.000000e+00
5.000000e-01 6.875000e-01 0.000000e+00
5.625000e-01 6.875000e-01 0.000000e+00
6.250000e-01 6.875000e-01 0.000000e+00
6.875000e-01 6.875000e-01 0.000000e+00
7.500000e-01 6.875000e-01 0.000000e+00
8.125000e-01 6.875000e-01 0.000000e+00
8.750000e-01 6.875000e-01 0.000000e+00
9.375000e-01 6.875000e-01 0.000000e+00
1.000000e+00 6.875000e-01 0.000000e+00
0.000000e+00 7.500000e-01 0.000000e+00
6.250000e-02 7.500000e-01 0.000000e+00
1.250000e-01 7.500000e-01 0.000000e+00
1.875000e-01 7.500000e-01 0.000000e+00
2.500000e-01 7.500000e-01 0.000000e+00
3.125000e-01 7.500000e-01 0.000000e+00
3.750000e-01 7.500000e-01 0.000000e+00
4.375000e-01 7.500000e-01 0.000000e+00
5.000000e-01 7.500000e-01 0.000000e+00
5.625000e-01 7.500000e-01 0.000000e+00
6.250000e-01 7.500000e-01 0.000000e+00
6.875000e-01 7.500000e-01 0.000000e+00
7.500000e-01 7.500000e-01 0.000000e+00
8.125000e-01 7.500000e-01 0.000000e+00
8.750000e-01 7.500000e-01 0.000000e+00
9.375000e-01 7.500000e-01 0.000000e+00
1.000000e+00 7.500000e-01 0.000000e+00
0.000000e+00 8.125000e-01 0.000000e+00
6.250000e-02 8.125000e-01 0.000000e+00
1.250000e-01 8.125000e-01 0.000000e+00
1.875000e-01 8.125000e-01 0.000000e+00
2.500000e-01 8.125000e-01 0.000000e+00
3.125000e-01 8.125000e-01 0.000000e+00
3.750000e-01 8.125000e-01 0.000000e+00
4.375000e-01 8.125000e-01 0.000000e+00
5.000000e-01 8.125000e-01 0.000000e+00
5.625000e-01 8.125000e-01 0.000000e+00
6.250000e-01 8.125000e-01 0.000000e+00
6.875000e-01 8.125000e-01 0.000000e+00
7.500000e-01 8.125000e-01 0.000000e+00
8.125000e-01 8.125000e-01 0.000000e+00
8.750000e-01 8.125000e-01 0.000000e+00
9.375000e-01 8.125000e-01 0.000000e+00
1.000000e+00 8.125000e-01 0.000000e+00
0.000000e+00 8.750000e-01 0.000000e+00
6.250000e-02 8.750000e-01 0.000000e+00
1.250000e-01 8.750000e-01 0.000000e+00
1.875000e-01 8.750000e-01 0.000000e+00
2.500000e-01 8.750000e-01 0.000000e+00
3.125000e-01 8.750000e-01 0.000000e+00
3.750000e-01 8.750000e-01 0.000000e+00
4.375000e-01 8.750000e-01 0.000000e+00
5.000000e-01 8.750000e-01 0.000000e+00
5.625000e-01 8.750000e-01 0.000000e+00
6.250000e-01 8.750000e-01 0.000000e+00
6.875000e-01 8.750000e-01 0.000000e+00
7.500000e-01 8.750000e-01 0.000000e+00
8.125000e-01 8.750000e-01 0.000000e+00
8.750000e-01 8.750000e-01 0.000000e+00
9.375000e-01 8.750000e-01 0.000000e+00
1.000000e+00 8.750000e-01 0.000000e+00
0.000000e+00 9.375000e-01 0.000000e+00
6.250000e-02 9.375000e-01 0.000000e+00
1.250000e-01 9.375000e-01 0.000000e+00
1.875000e-01 9.375000e-01 0.000000e+00
2.500000e-01 9.375000e-01 0.000000e+00
3.125000e-01 9.375000e-01 0.000000e+00
3.750000e-01 9.375000e-01 0.000000e+00
4.375000e-01 9.375000e-01 0.000000e+00
5.000000e-01 9.375000e-01 0.000000e+00
5.625000e-01 9.375000e-01 0.000000e+00
6.250000e-01 9.375000e-01 0.000000e+00
6.875000e-01 9.375000e-01 0.000000e+00
7.500000e-01 9.375000e-01 0.000000e+00
8.125000e-01 9.375000e-01 0.000000e+00
8.750000e-01 9.375000e-01 0.000000e+00
9.375000e-01 9.375000e-01 0.000000e+00
1.000000e+00 9.375000e-01 0.000000e+00
0.000000e+00 1.000000e+00 0.000000e+00
6.250000e-02 1.000000e+00 0.000000e+00
1.250000e-01 1.000000e+00 0.000000e+00
1.875000e-01 1.000000e+00 0.000000e+00
2.500000e-01 1.000000e+00 0.000000e+00
3.125000e-01 1.000000e+00 0.000000e+00
3.750000e-01 1.000000e+00 0.000000e+00
4.375000e-01 1.000000e+00 0.000000e+00
5.000000e-01 1.000000e+00 0.000000e+00
5.625000e-01 1.000000e+00 0.000000e+00
6.250000e-01 1.000000e+00 0.000000e+00
6.875000e-01 1.000000e+00 0.000000e+00
7.500000e-01 1.000000e+00 0.000000e+00
8.125000e-01 1.000000e+00 0.000000e+00
8.750000e-01 1.000000e+00 0.000000e+00
9.375000e-01 1.000000e+00 0.000000e+00
1.000000e+00 1.000000e+00 0.000000e+00
</DataArray>
</Points>
<PointData>
<DataArray Name="Velocity" type="Float64" format="ascii" NumberOfComponents="3">
0.000000e+00 0.000000e+00 0
0.000000e+00 0.000000e+00 0
0.000000e+00 0.000000e+00 0
0.000000e+00 0.000000e+00 0
0.000000e+00 0.000000e+00 0
0.000000e+00 0.000000e+00 0
0.000000e+00 0.000000e+00 0
0.000000e+00 0.000000e+00 0
0.000000e+00 0.000000e+00 0
0.000000e+00 0.000000e+00 0
0.000000e+00 0.000000e+00 0
0.000000e+00 0.000000e+00 0
0.000000e+00 0.000000e+00 0
0.000000e+00 0.000000e+00 0
0.000000e+00 0.000000e+00 0
0.000000e+00 0.000000e+00 0
0.000000e+00 0.000000e+00 0
0.000000e+00 0.000000e+00 0
-1.580725e-03 4.215667e-04 0
-7.078252e-03 2.845893e-03 0
-1.576058e-02 5.359967e-03 0
-2.715389e-02 7.944421e-03 0
-4.058447e-02 1.022043e-02 0
-5.495086e-02 1.154536e-02 0
-6.876488e-02 1.139382e-02 0
-8.031086e-02 9.494938e-03 0
-8.781314e-02 5.801597e-03 0
-8.956855e-02 4.105290e-04 0
-8.403372e-02 -6.636800e-03 0
-7.035237e-02 -1.427451e-02 0
-4.929522e-02 -1.967131e-02 0
-2.435287e-02 -1.839700e-02 0
-3.584505e-03 -6.890072e-03 0
0.000000e+00 0.000000e+00 0
0.000000e+00 0.000000e+00 0
-6.606505e-03 7.078113e-03 0
-1.899350e-02 1.418098e-02 0
-3.470759e-02 2.006990e-02 0
-5.252249e-02 2.482647e-02 0
-7.111182e-02 2.780397e-02 0
-8.896572e-02 2.818335e-02 0
-1.044974e-01 2.536091e-02 0
-1.161194e-01 1.904780e-02 0
-1.223033e-01 9.255208e-03 0
-1.216746e-01 -3.781106e-03 0
-1.131549e-01 -1.921603e-02 0
-9.660106e-02 -3.473820e-02 0
-7.262424e-02 -4.599950e-02 0
-4.341158e-02 -4.571063e-02 0
-1.444822e-02 -2.435295e-02 0
0.000000e+00 0.000000e+00 0
0.000000e+00 0.000000e+00 0
-1.072079e-02 1.941601e-02 0
-2.745443e-02 3.094605e-02 0
-4.637502e-02 3.889277e-02 0
-6.614650e-02 4.435777e-02 0
-8.559391e-02 4.666122e-02 0
-1.034484e-01 4.492280e-02 0
-1.184227e-01 3.854279e-02 0
-1.292642e-01 2.729808e-02 0
-1.347976e-01 1.135669e-02 0
-1.340282e-01 -8.734471e-03 0
-1.263216e-01 -3.170732e-02 0
-1.111988e-01 -5.480427e-02 0
-8.844295e-02 -7.286040e-02 0
-5.866555e-02 -7.657278e-02 0
-2.500708e-02 -5.030181e-02 0
0.000000e+00 0.000000e+00 0
0.000000e+00 0.000000e+00 0
-1.223279e-02 3.453893e-02 0
-3.029208e-02 4.982943e-02 0
-4.970179e-02 5.876193e-02 0
-6.919702e-02 6.404116e-02 0
-8.788385e-02 6.509491e-02 0
-1.048354e-01 6.100844e-02 0
-1.191051e-01 5.117893e-02 0
-1.297302e-01 3.542465e-02 0
-1.357549e-01 1.402205e-02 0
-1.363275e-01 -1.225460e-02 0
-1.308732e-01 -4.204562e-02 0
-1.186268e-01 -7.261775e-02 0
-9.861473e-02 -9.853266e-02 0
-6.994984e-02 -1.091463e-01 0
-3.362020e-02 -8.301848e-02 0
0.000000e+00 0.000000e+00 0
0.000000e+00 0.000000e+00 0
-1.131580e-02 4.970551e-02 0
-2.834804e-02 6.840439e-02 0
-4.638106e-02 7.780056e-02 0
-6.417130e-02 8.253845e-02 0
-8.107057e-02 8.229860e-02 0
-9.647831e-02 7.614904e-02 0
-1.097577e-01 6.343967e-02 0
-1.201847e-01 4.394656e-02 0
-1.269523e-01 1.795358e-02 0
-1.292672e-01 -1.361710e-02 0
-1.265653e-01 -4.940958e-02 0
-1.180670e-01 -8.706297e-02 0
-1.021398e-01 -1.215369e-01 0
-7.638761e-02 -1.415672e-01 0
-3.959916e-02 -1.202515e-01 0
0.000000e+00 0.000000e+00 0
0.000000e+00 0.000000e+00 0
-8.712788e-03 6.287816e-02 0
-2.305677e-02 8.489662e-02 0
-3.836024e-02 9.459558e-02 0
-5.330541e-02 9.873216e-02 0
-6.742804e-02 9.740431e-02 0
-8.042244e-02 8.969736e-02 0
-9.195608e-02 7.488165e-02 0
-1.015821e-01 5.261637e-02 0
-1.087082e-01 2.310448e-02 0
-1.126514e-01 -1.264198e-02 0
-1.128823e-01 -5.324614e-02 0
-1.089000e-01 -9.704274e-02 0
-9.847524e-02 -1.402119e-01 0
-7.761890e-02 -1.716873e-01 0
-4.277742e-02 -1.594060e-01 0
0.000000e+00 0.000000e+00 0
0.000000e+00 0.000000e+00 0
-5.266343e-03 7.275881e-02 0
-1.588828e-02 9.806283e-02 0
-2.754277e-02 1.080536e-01 0
-3.875234e-02 1.116036e-01 0
-4.917079e-02 1.094166e-01 0
-5.874887e-02 1.006758e-01 0
-6.747043e-02 8.459658e-02 0
-7.526393e-02 6.069965e-02 0
-8.193623e-02 2.902451e-02 0
-8.708851e-02 -9.443158e-03 0
-9.016940e-02 -5.316103e-02 0
-9.137186e-02 -1.014699e-01 0
-8.783878e-02 -1.528185e-01 0
-7.386269e-02 -1.972654e-01 0
-4.333182e-02 -1.978704e-01 0
0.000000e+00 0.000000e+00 0
0.000000e+00 0.000000e+00 0
-1.827496e-03 7.876765e-02 0
-8.246374e-03 1.071794e-01 0
-1.577375e-02 1.174560e-01 0
-2.270516e-02 1.203586e-01 0
-2.874818e-02 1.174033e-01 0
-3.405643e-02 1.079967e-01 0
-3.889586e-02 9.139693e-02 0
-4.357901e-02 6.708421e-02 0
-4.846736e-02 3.492937e-02 0
-5.392117e-02 -4.409476e-03 0
-5.972260e-02 -4.896266e-02 0
-6.657957e-02 -9.937330e-02 0
-7.108420e-02 -1.577215e-01 0
-6.574769e-02 -2.161944e-01 0
-4.163204e-02 -2.332687e-01 0
0.000000e+00 0.000000e+00 0
0.000000e+00 0.000000e+00 0
9.045108e-04 8.100674e-02 0
-1.458989e-03 1.120097e-01 0
-4.773923e-03 1.225088e-01 0
-7.266720e-03 1.245803e-01 0
-8.651975e-03 1.207700e-01 0
-9.258241e-03 1.108227e-01 0
-9.593956e-03 9.411952e-02 0
-1.025492e-02 7.027178e-02 0
-1.199878e-02 3.936599e-02 0
-1.605389e-02 1.811947e-03 0
-2.430105e-02 -4.050201e-02 0
-3.650455e-02 -9.010820e-02 0
-4.952786e-02 -1.536505e-01 0
-5.407554e-02 -2.267175e-01 0
-3.808348e-02 -2.636181e-01 0
0.000000e+00 0.000000e+00 0
0.000000e+00 0.000000e+00 0
2.498558e-03 8.022818e-02 0
3.357886e-03 1.128562e-01 0
4.030529e-03 1.232622e-01 0
5.963701e-03 1.242389e-01 0
9.266445e-03 1.193946e-01 0
1.335342e-02 1.089373e-01 0
1.741093e-02 9.239401e-02 0
2.051657e-02 6.948907e-02 0
2.156553e-02 4.072785e-02 0
1.898849e-02 7.893129e-03 0
1.043139e-02 -2.851151e-02 0
-3.983270e-03 -7.414651e-02 0
-2.469366e-02 -1.401505e-01 0
-3.941089e-02 -2.276387e-01 0
-3.287002e-02 -2.873443e-01 0
0.000000e+00 0.000000e+00 0
0.000000e+00 0.000000e+00 0
2.323035e-03 7.764988e-02 0
5.269187e-03 1.104749e-01 0
9.601397e-03 1.199025e-01 0
1.601935e-02 1.193454e-01 0
2.402517e-02 1.133794e-01 0
3.260670e-02 1.026780e-01 0
4.056622e-02 8.695701e-02 0
4.658304e-02 6.611677e-02 0
4.917131e-02 4.089361e-02 0
4.679812e-02 1.294632e-02 0
3.850855e-02 -1.753014e-02 0
2.406571e-02 -5.498322e-02 0
1.976742e-03 -1.182228e-01 0
-2.127974e-02 -2.185410e-01 0
-2.545198e-02 -3.030290e-01 0
0.000000e+00 0.000000e+00 0
0.000000e+00 0.000000e+00 0
-9.879375e-04 7.495878e-02 0
3.140832e-03 1.055754e-01 0
1.119590e-02 1.125128e-01 0
2.246358e-02 1.098157e-01 0
3.535624e-02 1.028067e-01 0
4.832655e-02 9.239677e-02 0
5.985118e-02 7.841783e-02 0
6.835940e-02 6.088324e-02 0
7.225925e-02 4.051248e-02 0
7.024801e-02 1.855603e-02 0
6.176992e-02 -5.779151e-03 0
4.697367e-02 -3.761472e-02 0
2.713606e-02 -9.480495e-02 0
2.936900e-03 -2.002099e-01 0
-1.351948e-02 -3.086241e-01 0
0.000000e+00 0.000000e+00 0
0.000000e+00 0.000000e+00 0
-9.089293e-03 7.450833e-02 0
-4.006437e-03 9.829022e-02 0
9.168824e-03 1.005808e-01 0
2.643813e-02 9.518498e-02 0
4.480744e-02 8.751619e-02 0
6.241686e-02 7.818356e-02 0
7.768282e-02 6.692407e-02 0
8.908110e-02 5.370830e-02 0
9.522848e-02 3.900505e-02 0
9.521583e-02 2.343569e-02 0
8.892555e-02 5.744057e-03 0
7.604767e-02 -2.034940e-02 0
5.930644e-02 -7.418600e-02 0
3.826750e-02 -1.778856e-01 0
9.052515e-03 -3.000922e-01 0
0.000000e+00 0.000000e+00 0
0.000000e+00 0.000000e+00 0
-2.028164e-02 7.896472e-02 0
-8.734918e-03 8.731729e-02 0
1.454534e-02 8.206854e-02 0
4.035944e-02 7.417664e-02 0
6.576428e-02 6.682819e-02 0
8.931572e-02 5.952195e-02 0
1.098288e-01 5.175361e-02 0
1.261854e-01 4.333751e-02 0
1.374553e-01 3.437780e-02 0
1.431357e-01 2.485884e-02 0
1.433278e-01 1.338884e-02 0
1.386803e-01 -7.995683e-03 0
1.300228e-01 -5.702483e-02 0
1.067473e-01 -1.499561e-01 0
5.556808e-02 -2.703567e-01 0
0.000000e+00 0.000000e+00 0
0.000000e+00 0.000000e+00 0
3.474520e-02 8.324299e-02 0
7.896467e-02 6.346335e-02 0
1.220626e-01 5.148638e-02 0
1.610331e-01 4.396582e-02 0
1.962391e-01 3.856028e-02 0
2.278614e-01 3.411933e-02 0
2.557612e-01 3.005440e-02 0
2.796150e-01 2.608178e-02 0
2.990987e-01 2.205469e-02 0
3.139928e-01 1.756316e-02 0
3.239575e-01 1.019937e-02 0
3.273816e-01 -7.044517e-03 0
3.159618e-01 -4.225310e-02 0
2.703567e-01 -1.034309e-01 0
1.660056e-01 -1.933449e-01 0
0.000000e+00 0.000000e+00 0
1.000000e+00 0.000000e+00 0
1.000000e+00 0.000000e+00 0
1.000000e+00 0.000000e+00 0
1.000000e+00 0.000000e+00 0
1.000000e+00 0.000000e+00 0
1.000000e+00 0.000000e+00 0
1.000000e+00 0.000000e+00 0
1.000000e+00 0.000000e+00 0
1.000000e+00 0.000000e+00 0
1.000000e+00 0.000000e+00 0
1.000000e+00 0.000000e+00 0
1.000000e+00 0.000000e+00 0
1.000000e+00 0.000000e+00 0
1.000000e+00 0.000000e+00 0
1.000000e+00 0.000000e+00 0
1.000000e+00 0.000000e+00 0
1.000000e+00 0.000000e+00 0
</DataArray>
<DataArray Name="Pressure" type="Float64" format="ascii">
2.494005e-03 2.454314e-03 2.243584e-03 1.895983e-03 1.624435e-03 1.459763e-03 1.368534e-03 1.458064e-03 1.880992e-03 2.776220e-03 4.245589e-03 6.126124e-03 7.963983e-03 9.207599e-03 9.496954e-03 9.104283e-03 8.822556e-03 
2.573295e-03 2.522471e-03 2.316664e-03 2.016855e-03 1.745392e-03 1.488814e-03 1.292550e-03 1.299028e-03 1.651200e-03 2.491340e-03 3.898867e-03 5.717312e-03 7.532023e-03 8.800618e-03 9.153501e-03 8.821330e-03 8.561847e-03 
2.799923e-03 2.692658e-03 2.433014e-03 2.125942e-03 1.739372e-03 1.254597e-03 8.267430e-04 6.094060e-04 7.407672e-04 1.388421e-03 2.625301e-03 4.341849e-03 6.199142e-03 7.656286e-03 8.268269e-03 8.115695e-03 7.904571e-03 
2.928269e-03 2.725738e-03 2.336559e-03 1.894382e-03 1.258564e-03 4.785587e-04 -2.733047e-04 -8.677729e-04 -1.117145e-03 -8.045499e-04 1.838858e-04 1.829537e-03 3.866388e-03 5.742050e-03 6.870728e-03 7.061300e-03 6.938868e-03 
2.577583e-03 2.332114e-03 1.862207e-03 1.249259e-03 3.151925e-04 -8.295316e-04 -2.034923e-03 -3.141446e-03 -3.876563e-03 -3.986338e-03 -3.308757e-03 -1.755493e-03 4.949959e-04 2.904070e-03 4.748170e-03 5.473397e-03 5.513834e-03 
1.679415e-03 1.475374e-03 9.855476e-04 1.575894e-04 -1.104688e-03 -2.651873e-03 -4.355266e-03 -5.995422e-03 -7.244192e-03 -7.826854e-03 -7.528345e-03 -6.149940e-03 -3.757811e-03 -8.350195e-04 1.795408e-03 3.180034e-03 3.447051e-03 
4.185098e-04 2.577135e-04 -2.862024e-04 -1.339244e-03 -2.871173e-03 -4.763689e-03 -6.906748e-03 -9.032492e-03 -1.079222e-02 -1.187007e-02 -1.199201e-02 -1.087868e-02 -8.484059e-03 -5.195373e-03 -1.862838e-03 1.998911e-04 7.281013e-04 
-1.029760e-03 -1.188860e-03 -1.807980e-03 -2.997672e-03 -4.683590e-03 -6.822695e-03 -9.300044e-03 -1.182400e-02 -1.403848e-02 -1.556269e-02 -1.607376e-02 -1.527599e-02 -1.304848e-02 -9.641552e-03 -5.827314e-03 -3.172083e-03 -2.382036e-03 
-2.516482e-03 -2.680510e-03 -3.320528e-03 -4.527379e-03 -6.259547e-03 -8.521797e-03 -1.117944e-02 -1.394910e-02 -1.647565e-02 -1.832405e-02 -1.912305e-02 -1.863754e-02 -1.674191e-02 -1.349942e-02 -9.490966e-03 -6.389943e-03 -5.360791e-03 
-3.888484e-03 -4.040041e-03 -4.620314e-03 -5.731260e-03 -7.390835e-03 -9.612272e-03 -1.225724e-02 -1.507328e-02 -1.771343e-02 -1.972606e-02 -2.068296e-02 -2.046875e-02 -1.900983e-02 -1.615007e-02 -1.218840e-02 -8.753079e-03 -7.495141e-03 
-5.043342e-03 -5.163313e-03 -5.605915e-03 -6.502193e-03 -7.954616e-03 -9.983901e-03 -1.246498e-02 -1.516568e-02 -1.773191e-02 -1.971267e-02 -2.068345e-02 -2.062502e-02 -1.958948e-02 -1.722940e-02 -1.335923e-02 -9.488736e-03 -7.919323e-03 
-5.975565e-03 -6.023859e-03 -6.230626e-03 -6.793304e-03 -7.924976e-03 -9.675361e-03 -1.193137e-02 -1.445264e-02 -1.685992e-02 -1.870239e-02 -1.960348e-02 -1.954403e-02 -1.863817e-02 -1.660301e-02 -1.257132e-02 -7.688413e-03 -5.470732e-03 
-6.760818e-03 -6.656180e-03 -6.478818e-03 -6.587631e-03 -7.321118e-03 -8.772821e-03 -1.082286e-02 -1.319719e-02 -1.548798e-02 -1.724416e-02 -1.810365e-02 -1.797930e-02 -1.687604e-02 -1.438039e-02 -9.169478e-03 -1.900968e-03 1.843429e-03 
-7.559841e-03 -7.167013e-03 -6.374893e-03 -5.889527e-03 -6.191316e-03 -7.397666e-03 -9.333468e-03 -1.166441e-02 -1.394860e-02 -1.572327e-02 -1.661124e-02 -1.642211e-02 -1.495035e-02 -1.090488e-02 -1.942705e-03 1.116567e-02 1.825856e-02 
-9.148629e-03 -7.995634e-03 -5.953177e-03 -4.696575e-03 -4.612439e-03 -5.702301e-03 -7.657189e-03 -1.006707e-02 -1.245579e-02 -1.434021e-02 -1.530015e-02 -1.499692e-02 -1.266805e-02 -5.363214e-03 1.148954e-02 3.726936e-02 5.167802e-02 
-1.387871e-02 -9.961412e-03 -4.520670e-03 -2.549194e-03 -2.440877e-03 -3.678145e-03 -5.818045e-03 -8.412457e-03 -1.097514e-02 -1.300646e-02 -1.399468e-02 -1.314941e-02 -8.437641e-03 4.561479e-03 3.228164e-02 7.680744e-02 1.029132e-01 
-1.745025e-02 -1.134322e-02 -3.376168e-03 -1.124602e-03 -1.160428e-03 -2.562156e-03 -4.842098e-03 -7.552828e-03 -1.021370e-02 -1.231996e-02 -1.329748e-02 -1.199068e-02 -5.520919e-03 1.094652e-02 4.439919e-02 9.918271e-02 1.319450e-01 
</DataArray>
</PointData>
</Piece>
</StructuredGrid>
</VTKFile>
