<?xml version="1.0"?>
<VTKFile type="StructuredGrid">
<StructuredGrid WholeExtent="0 32 0 32 0 0 ">
<Piece Extent="0 32 0 32 0 0 ">
<Points>
<DataArray type="Float64" format="ascii" NumberOfComponents="3">
0.000000e+00 0.000000e+00 0.000000e+00
3.125000e-02 0.000000e+00 0.000000e+00
6.250000e-02 0.000000e+00 0.000000e+00
9.375000e-02 0.000000e+00 0.000000e+00
1.250000e-01 0.000000e+00 0.000000e+00
1.562500e-01 0.000000e+00 0.000000e+00
1.875000e-01 0.000000e+00 0.000000e+00
2.187500e-01 0.000000e+00 0.000000e+00
2.500000e-01 0.000000e+00 0.000000e+00
2.812500e-01 0.000000e+00 0.000000e+00
3.125000e-01 0.000000e+00 0.000000e+00
3.437500e-01 0.000000e+00 0.000000e+00
3.750000e-01 0.000000e+00 0.000000e+00
4.062500e-01 0.000000e+00 0.000000e+00
4.375000e-01 0.000000e+00 0.000000e+00
4.687500e-01 0.000000e+00 0.000000e+00
5.000000e-01 0.000000e+00 0.000000e+00
5.312500e-01 0.000000e+00 0.000000e+00
5.625000e-01 0.000000e+00 0.000000e+00
5.937500e-01 0.000000e+00 0.000000e+00
6.250000e-01 0.000000e+00 0.000000e+00
6.562500e-01 0.000000e+00 0.000000e+00
6.875000e-01 0.000000e+00 0.000000e+00
7.187500e-01 0.000000e+00 0.000000e+00
7.500000e-01 0.000000e+00 0.000000e+00
7.812500e-01 0.000000e+00 0.000000e+00
8.125000e-01 0.000000e+00 0.000000e+00
8.437500e-01 0.000000e+00 0.000000e+00
8.750000e-01 0.000000e+00 0.000000e+00
9.062500e-01 0.000000e+00 0.000000e+00
9.375000e-01 0.000000e+00 0.000000e+00
9.687500e-01 0.000000e+00 0.000000e+00
1.000000e+00 0.000000e+00 0.000000e+00
0.000000e+00 3.125000e-02 0.000000e+00
3.125000e-02 3.125000e-02 0.000000e+00
6.250000e-02 3.125000e-02 0.000000e+00
9.375000e-02 3.125000e-02 0.000000e+00
1.250000e-01 3.125000e-02 0.000000e+00
1.562500e-01 3.125000e-02 0.000000e+00
1.875000e-01 3.125000e-02 0.000000e+00
2.187500e-01 3.125000e-02 0.000000e+00
2.500000e-01 3.125000e-02 0.000000e+00
2.812500e-01 3.125000e-02 0.000000e+00
3.125000e-01 3.125000e-02 0.000000e+00
3.437500e-01 3.125000e-02 0.000000e+00
3.750000e-01 3.125000e-02 0.000000e+00
4.062500e-01 3.125000e-02 0.000000e+00
4.375000e-01 3.125000e-02 0.000000e+00
4.687500e-01 3.125000e-02 0.000000e+00
5.000000e-01 3.125000e-02 0.000000e+00
5.312500e-01 3.125000e-02 0.000000e+00
5.625000e-01 3.125000e-02 0.000000e+00
5.937500e-01 3.125000e-02 0.000000e+00
6.250000e-01 3.125000e-02 0.000000e+00
6.562500e-01 3.125000e-02 0.000000e+00
6.875000e-01 3.125000e-02 0.000000e+00
7.187500e-01 3.125000e-02 0.000000e+00
7.500000e-01 3.125000e-02 0.000000e+00
7.812500e-01 3.125000e-02 0.000000e+00
8.125000e-01 3.125000e-02 0.000000e+00
8.437500e-01 3.125000e-02 0.000000e+00
8.750000e-01 3.125000e-02 0.000000e+00
9.062500e-01 3.125000e-02 0.000000e+00
9.375000e-01 3.125000e-02 0.000000e+00
9.687500e-01 3.125000e-02 0.000000e+00
1.000000e+00 3.125000e-02 0.000000e+00
0.000000e+00 6.250000e-02 0.000000e+00
3.125000e-02 6.250000e-02 0.000000e+00
6.250000e-02 6.250000e-02 0.000000e+00
9.375000e-02 6.250000e-02 0.000000e+00
1.250000e-01 6.250000e-02 0.000000e+00
1.562500e-01 6.250000e-02 0.000000e+00
1.875000e-01 6.250000e-02 0.000000e+00
2.187500e-01 6.250000e-02 0.000000e+00
2.500000e-01 6.250000e-02 0.000000e+00
2.812500e-01 6.250000e-02 0.000000e+00
3.125000e-01 6.250000e-02 0.000000e+00
3.437500e-01 6.250000e-02 0.000000e+00
3.750000e-01 6.250000e-02 0.000000e+00
4.062500e-01 6.250000e-02 0.000000e+00
4.375000e-01 6.250000e-02 0.000000e+00
4.687500e-01 6.250000e-02 0.000000e+00
5.000000e-01 6.250000e-02 0.000000e+00
5.312500e-01 6.250000e-02 0.000000e+00
5.625000e-01 6.250000e-02 0.000000e+00
5.937500e-01 6.250000e-02 0.000000e+00
6.250000e-01 6.250000e-02 0.000000e+00
6.562500e-01 6.250000e-02 0.000000e+00
6.875000e-01 6.250000e-02 0.000000e+00
7.187500e-01 6.250000e-02 0.000000e+00
7.500000e-01 6.250000e-02 0.000000e+00
7.812500e-01 6.250000e-02 0.000000e+00
8.125000e-01 6.250000e-02 0.000000e+00
8.437500e-01 6.250000e-02 0.000000e+00
8.750000e-01 6.250000e-02 0.000000e+00
9.062500e-01 6.250000e-02 0.000000e+00
9.375000e-01 6.250000e-02 0.000000e+00
9.687500e-01 6.250000e-02 0.000000e+00
1.000000e+00 6.250000e-02 0.000000e+00
0.000000e+00 9.375000e-02 0.000000e+00
3.125000e-02 9.375000e-02 0.000000e+00
6.250000e-02 9.375000e-02 0.000000e+00
9.375000e-02 9.375000e-02 0.000000e+00
1.250000e-01 9.375000e-02 0.000000e+00
1.562500e-01 9.375000e-02 0.000000e+00
1.875000e-01 9.375000e-02 0.000000e+00
2.187500e-01 9.375000e-02 0.000000e+00
2.500000e-01 9.375000e-02 0.000000e+00
2.812500e-01 9.375000e-02 0.000000e+00
3.125000e-01 9.375000e-02 0.000000e+00
3.437500e-01 9.375000e-02 0.000000e+00
3.750000e-01 9.375000e-02 0.000000e+00
4.062500e-01 9.375000e-02 0.000000e+00
4.375000e-01 9.375000e-02 0.000000e+00
4.687500e-01 9.375000e-02 0.000000e+00
5.000000e-01 9.375000e-02 0.000000e+00
5.312500e-01 9.375000e-02 0.000000e+00
5.625000e-01 9.375000e-02 0.000000e+00
5.937500e-01 9.375000e-02 0.000000e+00
6.250000e-01 9.375000e-02 0.000000e+00
6.562500e-01 9.375000e-02 0.000000e+00
6.875000e-01 9.375000e-02 0.000000e+00
7.187500e-01 9.375000e-02 0.000000e+00
7.500000e-01 9.375000e-02 0.000000e+00
7.812500e-01 9.375000e-02 0.000000e+00
8.125000e-01 9.375000e-02 0.000000e+00
8.437500e-01 9.375000e-02 0.000000e+00
8.750000e-01 9.375000e-02 0.000000e+00
9.062500e-01 9.375000e-02 0.000000e+00
9.375000e-01 9.375000e-02 0.000000e+00
9.687500e-01 9.375000e-02 0.000000e+00
1.000000e+00 9.375000e-02 0.000000e+00
0.000000e+00 1.250000e-01 0.000000e+00
3.125000e-02 1.250000e-01 0.000000e+00
6.250000e-02 1.250000e-01 0.000000e+00
9.375000e-02 1.250000e-01 0.000000e+00
1.250000e-01 1.250000e-01 0.000000e+00
1.562500e-01 1.250000e-01 0.000000e+00
1.875000e-01 1.250000e-01 0.000000e+00
2.187500e-01 1.250000e-01 0.000000e+00
2.500000e-01 1.250000e-01 0.000000e+00
2.812500e-01 1.250000e-01 0.000000e+00
3.125000e-01 1.250000e-01 0.000000e+00
3.437500e-01 1.250000e-01 0.000000e+00
3.750000e-01 1.250000e-01 0.000000e+00
4.062500e-01 1.250000e-01 0.000000e+00
4.375000e-01 1.250000e-01 0.000000e+00
4.687500e-01 1.250000e-01 0.000000e+00
5.000000e-01 1.250000e-01 0.000000e+00
5.312500e-01 1.250000e-01 0.000000e+00
5.625000e-01 1.250000e-01 0.000000e+00
5.937500e-01 1.250000e-01 0.000000e+00
6.250000e-01 1.250000e-01 0.000000e+00
6.562500e-01 1.250000e-01 0.000000e+00
6.875000e-01 1.250000e-01 0.000000e+00
7.187500e-01 1.250000e-01 0.000000e+00
7.500000e-01 1.250000e-01 0.000000e+00
7.812500e-01 1.250000e-01 0.000000e+00
8.125000e-01 1.250000e-01 0.000000e+00
8.437500e-01 1.250000e-01 0.000000e+00
8.750000e-01 1.250000e-01 0.000000e+00
9.062500e-01 1.250000e-01 0.000000e+00
9.375000e-01 1.250000e-01 0.000000e+00
9.687500e-01 1.250000e-01 0.000000e+00
1.000000e+00 1.250000e-01 0.000000e+00
0.000000e+00 1.562500e-01 0.000000e+00
3.125000e-02 1.562500e-01 0.000000e+00
6.250000e-02 1.562500e-01 0.000000e+00
9.375000e-02 1.562500e-01 0.000000e+00
1.250000e-01 1.562500e-01 0.000000e+00
1.562500e-01 1.562500e-01 0.000000e+00
1.875000e-01 1.562500e-01 0.000000e+00
2.187500e-01 1.562500e-01 0.000000e+00
2.500000e-01 1.562500e-01 0.000000e+00
2.812500e-01 1.562500e-01 0.000000e+00
3.125000e-01 1.562500e-01 0.000000e+00
3.437500e-01 1.562500e-01 0.000000e+00
3.750000e-01 1.562500e-01 0.000000e+00
4.062500e-01 1.562500e-01 0.000000e+00
4.375000e-01 1.562500e-01 0.000000e+00
4.687500e-01 1.562500e-01 0.000000e+00
5.000000e-01 1.562500e-01 0.000000e+00
5.312500e-01 1.562500e-01 0.000000e+00
5.625000e-01 1.562500e-01 0.000000e+00
5.937500e-01 1.562500e-01 0.000000e+00
6.250000e-01 1.562500e-01 0.000000e+00
6.562500e-01 1.562500e-01 0.000000e+00
6.875000e-01 1.562500e-01 0.000000e+00
7.187500e-01 1.562500e-01 0.000000e+00
7.500000e-01 1.562500e-01 0.000000e+00
7.812500e-01 1.562500e-01 0.000000e+00
8.125000e-01 1.562500e-01 0.000000e+00
8.437500e-01 1.562500e-01 0.000000e+00
8.750000e-01 1.562500e-01 0.000000e+00
9.062500e-01 1.562500e-01 0.000000e+00
9.375000e-01 1.562500e-01 0.000000e+00
9.687500e-01 1.562500e-01 0.000000e+00
1.000000e+00 1.562500e-01 0.000000e+00
0.000000e+00 1.875000e-01 0.000000e+00
3.125000e-02 1.875000e-01 0.000000e+00
6.250000e-02 1.875000e-01 0.000000e+00
9.375000e-02 1.875000e-01 0.000000e+00
1.250000e-01 1.875000e-01 0.000000e+00
1.562500e-01 1.875000e-01 0.000000e+00
1.875000e-01 1.875000e-01 0.000000e+00
2.187500e-01 1.875000e-01 0.000000e+00
2.500000e-01 1.875000e-01 0.000000e+00
2.812500e-01 1.875000e-01 0.000000e+00
3.125000e-01 1.875000e-01 0.000000e+00
3.437500e-01 1.875000e-01 0.000000e+00
3.750000e-01 1.875000e-01 0.000000e+00
4.062500e-01 1.875000e-01 0.000000e+00
4.375000e-01 1.875000e-01 0.000000e+00
4.687500e-01 1.875000e-01 0.000000e+00
5.000000e-01 1.875000e-01 0.000000e+00
5.312500e-01 1.875000e-01 0.000000e+00
5.625000e-01 1.875000e-01 0.000000e+00
5.937500e-01 1.875000e-01 0.000000e+00
6.250000e-01 1.875000e-01 0.000000e+00
6.562500e-01 1.875000e-01 0.000000e+00
6.875000e-01 1.875000e-01 0.000000e+00
7.187500e-01 1.875000e-01 0.000000e+00
7.500000e-01 1.875000e-01 0.000000e+00
7.812500e-01 1.875000e-01 0.000000e+00
8.125000e-01 1.875000e-01 0.000000e+00
8.437500e-01 1.875000e-01 0.000000e+00
8.750000e-01 1.875000e-01 0.000000e+00
9.062500e-01 1.875000e-01 0.000000e+00
9.375000e-01 1.875000e-01 0.000000e+00
9.687500e-01 1.875000e-01 0.000000e+00
1.000000e+00 1.875000e-01 0.000000e+00
0.000000e+00 2.187500e-01 0.000000e+00
3.125000e-02 2.187500e-01 0.000000e+00
6.250000e-02 2.187500e-01 0.000000e+00
9.375000e-02 2.187500e-01 0.000000e+00
1.250000e-01 2.187500e-01 0.000000e+00
1.562500e-01 2.187500e-01 0.000000e+00
1.875000e-01 2.187500e-01 0.000000e+00
2.187500e-01 2.187500e-01 0.000000e+00
2.500000e-01 2.187500e-01 0.000000e+00
2.812500e-01 2.187500e-01 0.000000e+00
3.125000e-01 2.187500e-01 0.000000e+00
3.437500e-01 2.187500e-01 0.000000e+00
3.750000e-01 2.187500e-01 0.000000e+00
4.062500e-01 2.187500e-01 0.000000e+00
4.375000e-01 2.187500e-01 0.000000e+00
4.687500e-01 2.187500e-01 0.000000e+00
5.000000e-01 2.187500e-01 0.000000e+00
5.312500e-01 2.187500e-01 0.000000e+00
5.625000e-01 2.187500e-01 0.000000e+00
5.937500e-01 2.187500e-01 0.000000e+00
[...]
<PointData>
<DataArray Name="Velocity" type="Float64" format="ascii" NumberOfComponents="3">
0.000000e+00 0.000000e+00 0
0.000000e+00 0.000000e+00 0
0.000000e+00 0.000000e+00 0
0.000000e+00 0.000000e+00 0
0.000000e+00 0.000000e+00 0
0.000000e+00 0.000000e+00 0
0.000000e+00 0.000000e+00 0
0.000000e+00 0.000000e+00 0
0.000000e+00 0.000000e+00 0
0.000000e+00 0.000000e+00 0
0.000000e+00 0.000000e+00 0
0.000000e+00 0.000000e+00 0
0.000000e+00 0.000000e+00 0
0.000000e+00 0.000000e+00 0
0.000000e+00 0.000000e+00 0
0.000000e+00 0.000000e+00 0
0.000000e+00 0.000000e+00 0
0.000000e+00 0.000000e+00 0
0.000000e+00 0.000000e+00 0
0.000000e+00 0.000000e+00 0
0.000000e+00 0.000000e+00 0
0.000000e+00 0.000000e+00 0
0.000000e+00 0.000000e+00 0
0.000000e+00 0.000000e+00 0
0.000000e+00 0.000000e+00 0
0.000000e+00 0.000000e+00 0
0.000000e+00 0.000000e+00 0
0.000000e+00 0.000000e+00 0
0.000000e+00 0.000000e+00 0
0.000000e+00 0.000000e+00 0
0.000000e+00 0.000000e+00 0
0.000000e+00 0.000000e+00 0
0.000000e+00 0.000000e+00 0
0.000000e+00 0.000000e+00 0
4.035121e-04 -4.290292e-04 0
5.044808e-04 -2.222508e-04 0
-3.479632e-05 1.702723e-04 0
-1.270939e-03 5.778099e-04 0
-3.208616e-03 9.766359e-04 0
-5.868079e-03 1.389709e-03 0
-9.277831e-03 1.836370e-03 0
-1.344783e-02 2.317653e-03 0
-1.834779e-02 2.815322e-03 0
-2.389237e-02 3.295270e-03 0
-2.993371e-02 3.712904e-03 0
-3.626025e-02 4.016734e-03 0
-4.260277e-02 4.152971e-03 0
-4.864614e-02 4.070462e-03 0
-5.404403e-02 3.725447e-03 0
-5.843569e-02 3.086911e-03 0
-6.146399e-02 2.141571e-03 0
-6.279461e-02 8.996797e-04 0
-6.213792e-02 -5.853234e-04 0
-5.923517e-02 -2.287408e-03 0
-5.397648e-02 -4.113651e-03 0
-4.646139e-02 -5.820671e-03 0
-3.704202e-02 -7.122579e-03 0
-2.636036e-02 -7.714455e-03 0
-1.537036e-02 -7.317543e-03 0
-5.313609e-03 -5.762173e-03 0
2.414267e-03 -3.285975e-03 0
6.610231e-03 -6.513243e-04 0
7.123012e-03 1.358551e-03 0
5.047260e-03 2.332831e-03 0
1.978779e-03 1.961776e-03 0
0.000000e+00 0.000000e+00 0
0.000000e+00 0.000000e+00 0
1.998614e-05 -5.220263e-04 0
-8.888818e-04 4.313547e-04 0
-2.979686e-03 1.788356e-03 0
-6.276076e-03 3.190768e-03 0
-1.077873e-02 4.604483e-03 0
-1.649471e-02 6.065289e-03 0
-2.340134e-02 7.572040e-03 0
-3.141155e-02 9.066150e-03 0
-4.035419e-02 1.044639e-02 0
-4.996941e-02 1.159030e-02 0
-5.991861e-02 1.237080e-02 0
-6.980284e-02 1.266933e-02 0
-7.918565e-02 1.238468e-02 0
-8.761656e-02 1.144002e-02 0
-9.465233e-02 9.789093e-03 0
-9.987525e-02 7.420221e-03 0
-1.029089e-01 4.359341e-03 0
-1.034312e-01 6.741162e-04 0
-1.011824e-01 -3.559536e-03 0
-9.595680e-02 -8.161707e-03 0
-8.780495e-02 -1.277410e-02 0
-7.694363e-02 -1.693474e-02 0
-6.378901e-02 -2.010124e-02 0
-4.900196e-02 -2.167182e-02 0
-3.353441e-02 -2.104691e-02 0
-1.866065e-02 -1.778480e-02 0
-5.934162e-03 -1.192400e-02 0
2.886212e-03 -4.708891e-03 0
6.536528e-03 1.562835e-03 0
5.616074e-03 5.144100e-03 0
2.478138e-03 5.047124e-03 0
0.000000e+00 0.000000e+00 0
0.000000e+00 0.000000e+00 0
-8.032495e-04 4.507688e-04 0
-3.405160e-03 2.798490e-03 0
-7.661351e-03 5.576429e-03 0
-1.344046e-02 8.377836e-03 0
-2.068277e-02 1.118283e-02 0
-2.932650e-02 1.399994e-02 0
-3.924346e-02 1.675054e-02 0
-5.021161e-02 1.927589e-02 0
-6.191704e-02 2.137940e-02 0
-7.397208e-02 2.286191e-02 0
-8.594078e-02 2.354454e-02 0
-9.736574e-02 2.328096e-02 0
-1.077914e-01 2.196540e-02 0
-1.167828e-01 1.953765e-02 0
-1.239404e-01 1.598534e-02 0
-1.289113e-01 1.134448e-02 0
-1.313967e-01 5.697904e-03 0
-1.311548e-01 -8.270154e-04 0
-1.279955e-01 -8.059983e-03 0
-1.218640e-01 -1.566493e-02 0
-1.128153e-01 -2.312677e-02 0
-1.010164e-01 -2.983648e-02 0
-8.677829e-02 -3.506413e-02 0
-7.060165e-02 -3.796899e-02 0
-5.323388e-02 -3.765883e-02 0
-3.573276e-02 -3.336243e-02 0
-1.952131e-02 -2.483285e-02 0
-6.372211e-03 -1.312202e-02 0
1.667740e-03 -1.371331e-03 0
3.734266e-03 6.391185e-03 0
2.021017e-03 7.577801e-03 0
0.000000e+00 0.000000e+00 0
0.000000e+00 0.000000e+00 0
-1.868067e-03 2.892673e-03 0
-6.476685e-03 7.309424e-03 0
-1.308266e-02 1.182388e-02 0
-2.132509e-02 1.619738e-02 0
-3.104212e-02 2.047609e-02 0
-4.208402e-02 2.462250e-02 0
-5.422583e-02 2.846260e-02 0
-6.715358e-02 3.174583e-02 0
-8.048436e-02 3.420802e-02 0
-9.379437e-02 3.561089e-02 0
-1.066469e-01 3.576090e-02 0
-1.186146e-01 3.451853e-02 0
-1.292947e-01 3.180238e-02 0
-1.383208e-01 2.759034e-02 0
-1.453698e-01 2.191844e-02 0
-1.501659e-01 1.487656e-02 0
-1.524831e-01 6.602392e-03 0
-1.521432e-01 -2.727467e-03 0
-1.490124e-01 -1.285032e-02 0
-1.430424e-01 -2.334175e-02 0
-1.342204e-01 -3.362155e-02 0
-1.226108e-01 -4.297161e-02 0
-1.083828e-01 -5.051591e-02 0
-9.185213e-02 -5.521619e-02 0
-7.354139e-02 -5.591580e-02 0
-5.426391e-02 -5.149736e-02 0
-3.523538e-02 -4.128455e-02 0
-1.820595e-02 -2.589794e-02 0
-5.497800e-03 -8.543664e-03 0
7.385153e-04 4.790787e-03 0
1.242495e-03 8.781349e-03 0
0.000000e+00 0.000000e+00 0
0.000000e+00 0.000000e+00 0
-3.008690e-03 6.943383e-03 0
-9.609153e-03 1.401756e-02 0
-1.839058e-02 2.041076e-02 0
-2.875380e-02 2.632132e-02 0
-4.043699e-02 3.193701e-02 0
-5.322311e-02 3.718924e-02 0
-6.683462e-02 4.182709e-02 0
-8.092775e-02 4.553603e-02 0
-9.511751e-02 4.801665e-02 0
-1.090064e-01 4.902032e-02 0
-1.222058e-01 4.836299e-02 0
-1.343502e-01 4.592938e-02 0
-1.451057e-01 4.167302e-02 0
-1.541738e-01 3.561338e-02 0
-1.612932e-01 2.783025e-02 0
-1.662397e-01 1.845731e-02 0
-1.688255e-01 7.674803e-03 0
-1.688991e-01 -4.297822e-03 0
-1.663498e-01 -1.716070e-02 0
-1.610779e-01 -3.045676e-02 0
-1.530099e-01 -4.355818e-02 0
-1.421156e-01 -5.567394e-02 0
-1.284285e-01 -6.582279e-02 0
-1.120823e-01 -7.281043e-02 0
-9.337485e-02 -7.524706e-02 0
-7.286736e-02 -7.166843e-02 0
-5.153693e-02 -6.089080e-02 0
-3.099955e-02 -4.285961e-02 0
-1.375404e-02 -2.031582e-02 0
-2.885990e-03 -3.491414e-04 0
4.143632e-04 8.316287e-03 0
0.000000e+00 0.000000e+00 0
0.000000e+00 0.000000e+00 0
-4.066536e-03 1.251264e-02 0
-1.238777e-02 2.268160e-02 0
-2.294333e-02 3.095278e-02 0
-3.493033e-02 3.823734e-02 0
-4.801229e-02 4.495051e-02 0
-6.193530e-02 5.102808e-02 0
-7.641095e-02 5.617025e-02 0
-9.110860e-02 6.002612e-02 0
-1.056796e-01 6.228268e-02 0
-1.197787e-01 6.269724e-02 0
-1.330782e-01 6.110532e-02 0
-1.452747e-01 5.741982e-02 0
-1.560920e-01 5.162658e-02 0
-1.652813e-01 4.377762e-02 0
-1.726197e-01 3.398391e-02 0
-1.779098e-01 2.240855e-02 0
-1.809798e-01 9.261694e-03 0
-1.816880e-01 -5.203010e-03 0
-1.799298e-01 -2.067135e-02 0
-1.755877e-01 -3.668160e-02 0
-1.685472e-01 -5.258376e-02 0
-1.586993e-01 -6.755298e-02 0
-1.459517e-01 -8.054925e-02 0
-1.302608e-01 -9.026985e-02 0
-1.116971e-01 -9.513076e-02 0
-9.055800e-02 -9.333529e-02 0
-6.754951e-02 -8.315236e-02 0
-4.407213e-02 -6.368085e-02 0
-2.262619e-02 -3.665725e-02 0
-7.022912e-03 -9.377631e-03 0
-3.869530e-04 5.895343e-03 0
0.000000e+00 0.000000e+00 0
0.000000e+00 0.000000e+00 0
-4.903500e-03 1.933245e-02 0
-1.451661e-02 3.288076e-02 0
-2.634159e-02 4.294583e-02 0
-3.942057e-02 5.139406e-02 0
-5.336362e-02 5.895009e-02 0
-6.790490e-02 6.559228e-02 0
-8.276963e-02 7.099904e-02 0
-9.766306e-02 7.480145e-02 0
-1.122859e-01 7.668517e-02 0
-1.263485e-01 7.641960e-02 0
-1.395776e-01 7.386034e-02 0
-1.517195e-01 6.894392e-02 0
-1.625398e-01 6.167952e-02 0
-1.718226e-01 5.214070e-02 0
-1.793701e-01 4.045856e-02 0
-1.850038e-01 2.681747e-02 0
-1.885680e-01 1.145316e-02 0
-1.899366e-01 -5.347742e-03 0
-1.890209e-01 -2.326087e-02 0
-1.857171e-01 -4.183931e-02 0
-1.798911e-01 -6.044655e-02 0
-1.713712e-01 -7.826939e-02 0
-1.599500e-01 -9.426137e-02 0
-1.454122e-01 -1.070651e-01 0
-1.276001e-01 -1.149498e-01 0
-1.065351e-01 -1.158160e-01 0
-8.262119e-02 -1.073767e-01 0
-5.697241e-02 -8.778295e-02 0
-3.192708e-02 -5.736505e-02 0
-1.166130e-02 -2.258839e-02 0
-1.250005e-03 1.293371e-03 0
0.000000e+00 0.000000e+00 0
0.000000e+00 0.000000e+00 0
-5.426199e-03 2.702363e-02 0
-1.582910e-02 4.411142e-02 0
-2.839772e-02 5.585867e-02 0
-4.205633e-02 6.526670e-02 0
-5.637576e-02 7.343968e-02 0
-7.109008e-02 8.043368e-02 0
-8.595092e-02 8.592589e-02 0
-1.007053e-01 8.954118e-02 0
-1.151021e-01 9.096893e-02 0
-1.288989e-01 8.999033e-02 0
-1.418653e-01 8.647706e-02 0
-1.537842e-01 8.038196e-02 0
-1.644517e-01 7.172948e-02 0
-1.736780e-01 6.060800e-02 0
-1.812895e-01 4.716533e-02 0
-1.871332e-01 3.160672e-02 0
-1.910811e-01 1.419470e-02 0
-1.930366e-01 -4.749979e-03 0
-1.929388e-01 -2.489072e-02 0
-1.907222e-01 -4.581140e-02 0
-1.862530e-01 -6.692975e-02 0
-1.793138e-01 -8.749406e-02 0
-1.695966e-01 -1.065082e-01 0
-1.567232e-01 -1.226198e-01 0
-1.403097e-01 -1.340079e-01 0
-1.200930e-01 -1.383141e-01 0
-9.614774e-02 -1.327151e-01 0
-6.924280e-02 -1.143750e-01 0
-4.142347e-02 -8.196836e-02 0
-1.689977e-02 -4.005470e-02 0
-2.330519e-03 -5.765949e-03 0
0.000000e+00 0.000000e+00 0
0.000000e+00 0.000000e+00 0
-5.591904e-03 3.515546e-02 0
-1.627102e-02 5.585212e-02 0
-2.907696e-02 6.917908e-02 0
-4.284247e-02 7.937648e-02 0
-5.710346e-02 8.798349e-02 0
-7.159875e-02 9.516500e-02 0
-8.610887e-02 1.006132e-01 0
-1.004195e-01 1.039536e-01 0
-1.143198e-01 1.048802e-01 0
-1.276039e-01 1.031835e-01 0
-1.400738e-01 9.874548e-02 0
-1.515404e-01 9.153007e-02 0
-1.618254e-01 8.157348e-02 0
-1.707656e-01 6.897900e-02 0
-1.782182e-01 5.391417e-02 0
-1.840669e-01 3.660935e-02 0
-1.882257e-01 1.735670e-02 0
-1.906396e-01 -3.489981e-03 0
-1.912818e-01 -2.557524e-02 0
-1.901504e-01 -4.852516e-02 0
-1.871301e-01 -7.185487e-02 0
-1.819774e-01 -9.492576e-02 0
-1.743025e-01 -1.168520e-01 0
-1.635791e-01 -1.363520e-01 0
-1.492037e-01 -1.515800e-01 0
-1.306230e-01 -1.599780e-01 0
-1.075598e-01 -1.582269e-01 0
-8.039011e-02 -1.425072e-01 0
-5.076933e-02 -1.097081e-01 0
-2.268948e-02 -6.168133e-02 0
-3.729075e-03 -1.560639e-02 0
0.000000e+00 0.000000e+00 0
0.000000e+00 0.000000e+00 0
-5.402868e-03 4.329230e-02 0
-1.587078e-02 6.760141e-02 0
-2.844634e-02 8.243426e-02 0
-4.189138e-02 9.329266e-02 0
-5.570520e-02 1.021929e-01 0
-6.963086e-02 1.094374e-01 0
-8.347378e-02 1.147474e-01 0
-9.705202e-02 1.177537e-01 0
-1.101858e-01 1.181540e-01 0
-1.226979e-01 1.157441e-01 0
-1.344153e-01 1.104132e-01 0
-1.451721e-01 1.021336e-01 0
-1.548145e-01 9.095515e-02 0
-1.632086e-01 7.700135e-02 0
-1.702489e-01 6.046701e-02 0
-1.758661e-01 4.161444e-02 0
-1.800290e-01 2.076751e-02 0
-1.827377e-01 -1.693845e-03 0
-1.840025e-01 -2.537995e-02 0
-1.839008e-01 -4.996319e-02 0
-1.823544e-01 -7.510268e-02 0
-1.791197e-01 -1.003216e-01 0
-1.737513e-01 -1.249065e-01 0
-1.655968e-01 -1.477185e-01 0
-1.538451e-01 -1.669640e-01 0
-1.376516e-01 -1.799580e-01 0
-1.163691e-01 -1.829479e-01 0
-8.993859e-02 -1.711655e-01 0
-5.954747e-02 -1.396690e-01 0
-2.878776e-02 -8.709494e-02 0
-5.563288e-03 -2.845541e-02 0
0.000000e+00 0.000000e+00 0
0.000000e+00 0.000000e+00 0
-4.896061e-03 5.102771e-02 0
-1.471220e-02 7.890029e-02 0
-2.663859e-02 9.519960e-02 0
-3.938424e-02 1.066319e-01 0
-5.240846e-02 1.157204e-01 0
-6.545250e-02 1.229337e-01 0
-7.834117e-02 1.280358e-01 0
-9.091781e-02 1.306664e-01 0
-1.030281e-01 1.305259e-01 0
-1.145180e-01 1.274124e-01 0
-1.252359e-01 1.212196e-01 0
-1.350371e-01 1.119297e-01 0
-1.437918e-01 9.961055e-02 0
-1.513958e-01 8.441373e-02 0
-1.577824e-01 6.657178e-02 0
-1.629323e-01 4.638948e-02 0
-1.668756e-01 2.422834e-02 0
-1.696820e-01 4.835627e-04 0
-1.714355e-01 -2.441213e-02 0
-1.722508e-01 -5.017329e-02 0
-1.721188e-01 -7.663590e-02 0
-1.708316e-01 -1.035287e-01 0
-1.679245e-01 -1.303749e-01 0
-1.626505e-01 -1.562581e-01 0
-1.540120e-01 -1.795251e-01 0
-1.408777e-01 -1.974540e-01 0
-1.222163e-01 -2.059399e-01 0
-9.749835e-02 -1.993288e-01 0
-6.737739e-02 -1.708589e-01 0
-3.491585e-02 -1.156655e-01 0
-7.913892e-03 -4.439412e-02 0
0.000000e+00 0.000000e+00 0
0.000000e+00 0.000000e+00 0
-4.131530e-03 5.800774e-02 0
-1.291582e-02 8.934534e-02 0
-2.382888e-02 1.071033e-01 0
-3.554858e-02 1.190592e-01 0
-4.748872e-02 1.282605e-01 0
-5.938080e-02 1.353714e-01 0
-7.106279e-02 1.402138e-01 0
-8.239912e-02 1.424406e-01 0
-9.325805e-02 1.417537e-01 0
-1.035072e-01 1.379518e-01 0
-1.130159e-01 1.309326e-01 0
-1.216608e-01 1.206899e-01 0
-1.293355e-01 1.073141e-01 0
-1.359638e-01 9.099203e-02 0
-1.415143e-01 7.200354e-02 0
-1.460123e-01 5.070765e-02 0
-1.495455e-01 2.751725e-02 0
-1.522552e-01 2.866033e-03 0
-1.543116e-01 -2.281119e-02 0
-1.558609e-01 -4.927977e-02 0
-1.569844e-01 -7.652176e-02 0
-1.575474e-01 -1.045158e-01 0
-1.571133e-01 -1.330875e-01 0
-1.548860e-01 -1.616310e-01 0
-1.497137e-01 -1.887368e-01 0
-1.401920e-01 -2.117538e-01 0
-1.248975e-01 -2.263273e-01 0
-1.028003e-01 -2.260043e-01 0
-7.396455e-02 -2.022514e-01 0
-4.082461e-02 -1.465584e-01 0
-1.078606e-02 -6.337123e-02 0
0.000000e+00 0.000000e+00 0
0.000000e+00 0.000000e+00 0
-3.183772e-03 6.394617e-02 0
-1.062625e-02 9.859613e-02 0
-2.022053e-02 1.178291e-01 0
-3.064239e-02 1.302904e-01 0
-4.125427e-02 1.395534e-01 0
-5.176955e-02 1.465090e-01 0
-6.203379e-02 1.510545e-01 0
-7.193083e-02 1.528614e-01 0
-8.135150e-02 1.516338e-01 0
-9.018684e-02 1.471705e-01 0
-9.832941e-02 1.393735e-01 0
-1.056796e-01 1.282495e-01 0
-1.121553e-01 1.139137e-01 0
-1.177056e-01 9.659249e-02 0
-1.223264e-01 7.662023e-02 0
-1.260754e-01 5.442076e-02 0
-1.290816e-01 3.047122e-02 0
-1.315409e-01 5.249605e-03 0
-1.336862e-01 -2.080638e-02 0
-1.357324e-01 -4.750038e-02 0
-1.378555e-01 -7.494935e-02 0
-1.400315e-01 -1.033998e-01 0
-1.419123e-01 -1.330362e-01 0
-1.427169e-01 -1.636577e-01 0
-1.411898e-01 -1.942191e-01 0
-1.356789e-01 -2.222701e-01 0
-1.243677e-01 -2.433316e-01 0
-1.057002e-01 -2.502618e-01 0
-7.910120e-02 -2.328346e-01 0
-4.628915e-02 -1.788439e-01 0
-1.405461e-02 -8.521870e-02 0
0.000000e+00 0.000000e+00 0
0.000000e+00 0.000000e+00 0
-2.137269e-03 6.863479e-02 0
-8.003986e-03 1.063796e-01 0
-1.603485e-02 1.271177e-01 0
-2.494153e-02 1.400935e-01 0
-3.403280e-02 1.493889e-01 0
-4.299466e-02 1.561515e-01 0
-5.167581e-02 1.603751e-01 0
-5.997869e-02 1.617582e-01 0
-6.781903e-02 1.600099e-01 0
-7.511500e-02 1.549300e-01 0
-8.178764e-02 1.464256e-01 0
-8.776569e-02 1.345159e-01 0
-9.299423e-02 1.193401e-01 0
-9.744621e-02 1.011630e-01 0
-1.011367e-01 8.037327e-02 0
-1.041381e-01 5.746295e-02 0
-1.065936e-01 3.298288e-02 0
-1.087219e-01 7.470677e-03 0
-1.107990e-01 -1.861970e-02 0
-1.131033e-01 -4.511048e-02 0
-1.159061e-01 -7.222265e-02 0
-1.193296e-01 -1.004590e-01 0
-1.231876e-01 -1.304020e-01 0
-1.268034e-01 -1.623535e-01 0
-1.288938e-01 -1.957747e-01 0
-1.276036e-01 -2.285758e-01 0
-1.207301e-01 -2.563060e-01 0
-1.061696e-01 -2.712708e-01 0
-8.265829e-02 -2.616624e-01 0
-5.111093e-02 -2.116050e-01 0
-1.751050e-02 -1.096603e-01 0
0.000000e+00 0.000000e+00 0
0.000000e+00 0.000000e+00 0
-1.085790e-03 7.194957e-02 0
-5.219613e-03 1.124920e-01 0
-1.150249e-02 1.347667e-01 0
-1.872952e-02 1.482894e-01 0
-2.615926e-02 1.576074e-01 0
-3.344055e-02 1.641521e-01 0
-4.041970e-02 1.680385e-01 0
-4.701731e-02 1.690049e-01 0
-5.317676e-02 1.667705e-01 0
-5.884845e-02 1.611394e-01 0
-6.398797e-02 1.520242e-01 0
-6.855917e-02 1.394561e-01 0
-7.253998e-02 1.235942e-01 0
-7.593018e-02 1.047350e-01 0
-7.876088e-02 8.331216e-02 0
-8.110604e-02 5.987777e-02 0
-8.309595e-02 3.505507e-02 0
-8.493041e-02 9.454981e-03 0
-8.688268e-02 -1.642493e-02 0
-8.926970e-02 -4.239333e-02 0
-9.243624e-02 -6.872313e-02 0
-9.666707e-02 -9.611824e-02 0
-1.020111e-01 -1.255624e-01 0
-1.080081e-01 -1.579515e-01 0
-1.134611e-01 -1.934188e-01 0
-1.163868e-01 -2.304338e-01 0
-1.142182e-01 -2.647656e-01 0
-1.042842e-01 -2.883336e-01 0
-8.458336e-02 -2.878931e-01 0
-5.513764e-02 -2.439917e-01 0
-2.094650e-02 -1.363296e-01 0
0.000000e+00 0.000000e+00 0
0.000000e+00 0.000000e+00 0
-1.298662e-04 7.385355e-02 0
-2.447108e-03 1.167960e-01 0
-6.856566e-03 1.406285e-01 0
-1.228855e-02 1.547510e-01 0
-1.796625e-02 1.641000e-01 0
-2.348833e-02 1.704119e-01 0
-2.869138e-02 1.739520e-01 0
-3.351274e-02 1.745157e-01 0
-3.792555e-02 1.718414e-01 0
-4.191690e-02 1.657414e-01 0
-4.548272e-02 1.561363e-01 0
-4.862872e-02 1.430679e-01 0
-5.137285e-02 1.267111e-01 0
-5.374838e-02 1.073840e-01 0
-5.580713e-02 8.554921e-02 0
-5.762370e-02 6.179809e-02 0
-5.930223e-02 3.680728e-02 0
-6.099010e-02 1.125740e-02 0
-6.290140e-02 -1.428043e-02 0
-6.533134e-02 -3.955692e-02 0
-6.865235e-02 -6.482525e-02 0
-7.328243e-02 -9.088417e-02 0
-7.954931e-02 -1.190610e-01 0
-8.732649e-02 -1.509034e-01 0
-9.566083e-02 -1.873960e-01 0
-1.025690e-01 -2.278186e-01 0
-1.051690e-01 -2.684085e-01 0
-1.002086e-01 -3.009056e-01 0
-8.489827e-02 -3.108090e-01 0
-5.827922e-02 -2.752418e-01 0
-2.420593e-02 -1.647980e-01 0
0.000000e+00 0.000000e+00 0
0.000000e+00 0.000000e+00 0
7.206520e-04 7.439624e-02 0
1.232859e-04 1.192193e-01 0
-2.334600e-03 1.446089e-01 0
-5.894235e-03 1.593992e-01 0
-9.777856e-03 1.688069e-01 0
-1.350728e-02 1.748772e-01 0
-1.690149e-02 1.780633e-01 0
-1.991121e-02 1.782395e-01 0
-2.253967e-02 1.751749e-01 0
-2.481305e-02 1.686966e-01 0
-2.677156e-02 1.587361e-01 0
-2.846743e-02 1.453463e-01 0
-2.996435e-02 1.287139e-01 0
-3.133622e-02 1.091693e-01 0
-3.266503e-02 8.718756e-02 0
-3.403752e-02 6.337293e-02 0
-3.554212e-02 3.842148e-02 0
-3.727222e-02 1.305414e-02 0
-3.934484e-02 -1.208369e-02 0
-4.195131e-02 -3.664235e-02 0
-4.541827e-02 -6.077201e-02 0
-5.020982e-02 -8.522126e-02 0
-5.690685e-02 -1.115183e-01 0
-6.578784e-02 -1.418399e-01 0
-7.633339e-02 -1.781763e-01 0
-8.676540e-02 -2.209256e-01 0
-9.398871e-02 -2.671259e-01 0
-9.417237e-02 -3.086043e-01 0
-8.368861e-02 -3.298225e-01 0
-6.050992e-02 -3.046841e-01 0
-2.719552e-02 -1.946088e-01 0
0.000000e+00 0.000000e+00 0
0.000000e+00 0.000000e+00 0
1.473527e-03 7.373029e-02 0
2.402570e-03 1.198520e-01 0
1.837546e-03 1.466462e-01 0
1.554402e-04 1.621939e-01 0
-1.911716e-03 1.717128e-01 0
-3.847833e-03 1.775357e-01 0
-5.436474e-03 1.803563e-01 0
-6.630346e-03 1.801542e-01 0
-7.459542e-03 1.767434e-01 0
-7.989822e-03 1.699733e-01 0
-8.307450e-03 1.597907e-01 0
-8.513383e-03 1.462608e-01 0
-8.719697e-03 1.295800e-01 0
-9.045272e-03 1.100847e-01 0
-9.610010e-03 8.825058e-02 0
-1.052776e-02 6.467523e-02 0
-1.189847e-02 4.004198e-02 0
-1.379606e-02 1.506012e-02 0
-1.625431e-02 -9.601307e-03 0
-1.928325e-02 -3.348344e-02 0
-2.309500e-02 -5.656669e-02 0
-2.808171e-02 -7.939555e-02 0
-3.494867e-02 -1.034829e-01 0
-4.433101e-02 -1.314768e-01 0
-5.631462e-02 -1.664185e-01 0
-6.961352e-02 -2.101633e-01 0
-8.111193e-02 -2.610015e-01 0
-8.643831e-02 -3.112058e-01 0
-8.108118e-02 -3.444715e-01 0
-6.185453e-02 -3.317349e-01 0
-2.987584e-02 -2.253079e-01 0
0.000000e+00 0.000000e+00 0
0.000000e+00 0.000000e+00 0
2.076135e-03 7.199396e-02 0
4.351680e-03 1.188557e-01 0
5.493775e-03 1.468558e-01 0
5.608756e-03 1.631481e-01 0
5.333129e-03 1.728101e-01 0
5.167135e-03 1.784023e-01 0
5.362759e-03 1.808461e-01 0
5.972811e-03 1.802627e-01 0
6.943399e-03 1.765345e-01 0
8.168640e-03 1.695446e-01 0
9.514758e-03 1.592597e-01 0
1.083082e-02 1.457586e-01 0
1.195562e-02 1.292459e-01 0
1.272456e-02 1.100597e-01 0
1.297805e-02 8.867012e-02 0
1.257112e-02 6.566143e-02 0
1.138389e-02 4.168980e-02 0
9.339010e-03 1.741002e-02 0
6.435665e-03 -6.596435e-03 0
2.838772e-03 -2.980159e-02 0
-1.572867e-03 -5.197348e-02 0
-7.064751e-03 -7.336755e-02 0
-1.416628e-02 -9.526897e-02 0
-2.366770e-02 -1.204739e-01 0
-3.635332e-02 -1.528938e-01 0
-5.172037e-02 -1.961283e-01 0
-6.695738e-02 -2.503012e-01 0
-7.726274e-02 -3.086350e-01 0
-7.721047e-02 -3.544063e-01 0
-6.236212e-02 -3.558894e-01 0
-3.224140e-02 -2.564633e-01 0
0.000000e+00 0.000000e+00 0
0.000000e+00 0.000000e+00 0
2.497275e-03 6.937892e-02 0
5.875085e-03 1.164344e-01 0
8.506412e-03 1.453889e-01 0
1.028080e-02 1.623544e-01 0
1.170888e-02 1.721546e-01 0
1.326699e-02 1.775063e-01 0
1.521706e-02 1.795508e-01 0
1.761093e-02 1.785737e-01 0
2.036993e-02 1.745476e-01 0
2.334683e-02 1.674020e-01 0
2.635911e-02 1.571286e-01 0
2.920555e-02 1.438200e-01 0
3.167678e-02 1.276863e-01 0
3.356477e-02 1.090624e-01 0
3.467383e-02 8.840408e-02 0
3.483329e-02 6.626943e-02 0
3.391127e-02 4.327415e-02 0
3.182604e-02 2.000844e-02 0
2.856345e-02 -3.100983e-03 0
2.431574e-02 -2.547484e-02 0
1.908239e-02 -4.666312e-02 0