<?xml version="1.0"?>
<VTKFile type="StructuredGrid">
<StructuredGrid WholeExtent="0 4 0 4 0 0 ">
<Piece Extent="0 4 0 4 0 0 ">
<Points>
<DataArray type="Float64" format="ascii" NumberOfComponents="3">
0.000000e+00 0.000000e+00 0.000000e+00
2.500000e-01 0.000000e+00 0.000000e+00
5.000000e-01 0.000000e+00 0.000000e+00
7.500000e-01 0.000000e+00 0.000000e+00
1.000000e+00 0.000000e+00 0.000000e+00
0.000000e+00 2.500000e-01 0.000000e+00
2.500000e-01 2.500000e-01 0.000000e+00
5.000000e-01 2.500000e-01 0.000000e+00
7.500000e-01 2.500000e-01 0.000000e+00
1.000000e+00 2.500000e-01 0.000000e+00
0.000000e+00 5.000000e-01 0.000000e+00
2.500000e-01 5.000000e-01 0.000000e+00
5.000000e-01 5.000000e-01 0.000000e+00
7.500000e-01 5.000000e-01 0.000000e+00
1.000000e+00 5.000000e-01 0.000000e+00
0.000000e+00 7.500000e-01 0.000000e+00
2.500000e-01 7.500000e-01 0.000000e+00
5.000000e-01 7.500000e-01 0.000000e+00
7.500000e-01 7.500000e-01 0.000000e+00
1.000000e+00 7.500000e-01 0.000000e+00
0.000000e+00 1.000000e+00 0.000000e+00
2.500000e-01 1.000000e+00 0.000000e+00
5.000000e-01 1.000000e+00 0.000000e+00
7.500000e-01 1.000000e+00 0.000000e+00
1.000000e+00 1.000000e+00 0.000000e+00
</DataArray>
</Points>
<PointData>
<DataArray Name="Velocity" type="Float64" format="ascii" NumberOfComponents="3">
0.000000e+00 0.000000e+00 0
0.000000e+00 0.000000e+00 0
0.000000e+00 0.000000e+00 0
0.000000e+00 0.000000e+00 0
0.000000e+00 0.000000e+00 0
0.000000e+00 0.000000e+00 0
-2.201061e-02 1.885701e-02 0
-3.826441e-02 8.908048e-03 0
-3.705717e-02 -1.885700e-02 0
0.000000e+00 0.000000e+00 0
0.000000e+00 0.000000e+00 0
-2.038539e-02 3.826465e-02 0
-3.077037e-02 1.504530e-02 0
-2.146905e-02 -3.826483e-02 0
0.000000e+00 0.000000e+00 0
0.000000e+00 0.000000e+00 0
2.201047e-02 4.962881e-02 0
3.826464e-02 9.992289e-03 0
3.705715e-02 -4.962874e-02 0
0.000000e+00 0.000000e+00 0
1.000000e+00 0.000000e+00 0
1.000000e+00 0.000000e+00 0
1.000000e+00 0.000000e+00 0
1.000000e+00 0.000000e+00 0
1.000000e+00 0.000000e+00 0
</DataArray>
<DataArray Name="Pressure" type="Float64" format="ascii">
-9.606104e-04 -1.037694e-03 -7.192821e-04 4.634704e-04 1.250727e-03 
-1.303628e-03 -1.434443e-03 -1.330660e-03 -2.290499e-04 6.379610e-04 
-2.512836e-03 -2.678614e-03 -2.786270e-03 -1.197502e-03 3.331448e-04 
-4.216824e-03 -3.932625e-03 -3.018945e-03 8.050683e-04 3.999601e-03 
-5.054621e-03 -4.339215e-03 -2.407388e-03 3.083570e-03 7.358108e-03 
</DataArray>
</PointData>
</Piece>
</StructuredGrid>
</VTKFile>
