<?xml version="1.0"?>
<VTKFile type="StructuredGrid">
<StructuredGrid WholeExtent="0 64 0 64 0 0 ">
<Piece Extent="0 64 0 64 0 0 ">
<Points>
<DataArray type="Float64" format="ascii" NumberOfComponents="3">
0.000000e+00 0.000000e+00 0.000000e+00
1.562500e-02 0.000000e+00 0.000000e+00
3.125000e-02 0.000000e+00 0.000000e+00
4.687500e-02 0.000000e+00 0.000000e+00
6.250000e-02 0.000000e+00 0.000000e+00
7.812500e-02 0.000000e+00 0.000000e+00
9.375000e-02 0.000000e+00 0.000000e+00
1.093750e-01 0.000000e+00 0.000000e+00
1.250000e-01 0.000000e+00 0.000000e+00
1.406250e-01 0.000000e+00 0.000000e+00
1.562500e-01 0.000000e+00 0.000000e+00
1.718750e-01 0.000000e+00 0.000000e+00
1.875000e-01 0.000000e+00 0.000000e+00
2.031250e-01 0.000000e+00 0.000000e+00
2.187500e-01 0.000000e+00 0.000000e+00
2.343750e-01 0.000000e+00 0.000000e+00
2.500000e-01 0.000000e+00 0.000000e+00
2.656250e-01 0.000000e+00 0.000000e+00
2.812500e-01 0.000000e+00 0.000000e+00
2.968750e-01 0.000000e+00 0.000000e+00
3.125000e-01 0.000000e+00 0.000000e+00
3.281250e-01 0.000000e+00 0.000000e+00
3.437500e-01 0.000000e+00 0.000000e+00
3.593750e-01 0.000000e+00 0.000000e+00
3.750000e-01 0.000000e+00 0.000000e+00
3.906250e-01 0.000000e+00 0.000000e+00
4.062500e-01 0.000000e+00 0.000000e+00
4.218750e-01 0.000000e+00 0.000000e+00
4.375000e-01 0.000000e+00 0.000000e+00
4.531250e-01 0.000000e+00 0.000000e+00
4.687500e-01 0.000000e+00 0.000000e+00
4.843750e-01 0.000000e+00 0.000000e+00
5.000000e-01 0.000000e+00 0.000000e+00
5.156250e-01 0.000000e+00 0.000000e+00
5.312500e-01 0.000000e+00 0.000000e+00
5.468750e-01 0.000000e+00 0.000000e+00
5.625000e-01 0.000000e+00 0.000000e+00
5.781250e-01 0.000000e+00 0.000000e+00
5.937500e-01 0.000000e+00 0.000000e+00
6.093750e-01 0.000000e+00 0.000000e+00
6.250000e-01 0.000000e+00 0.000000e+00
6.406250e-01 0.000000e+00 0.000000e+00
6.562500e-01 0.000000e+00 0.000000e+00
6.718750e-01 0.000000e+00 0.000000e+00
6.875000e-01 0.000000e+00 0.000000e+00
7.031250e-01 0.000000e+00 0.000000e+00
7.187500e-01 0.000000e+00 0.000000e+00
7.343750e-01 0.000000e+00 0.000000e+00
7.500000e-01 0.000000e+00 0.000000e+00
7.656250e-01 0.000000e+00 0.000000e+00
7.812500e-01 0.000000e+00 0.000000e+00
7.968750e-01 0.000000e+00 0.000000e+00
8.125000e-01 0.000000e+00 0.000000e+00
8.281250e-01 0.000000e+00 0.000000e+00
8.437500e-01 0.000000e+00 0.000000e+00
8.593750e-01 0.000000e+00 0.000000e+00
8.750000e-01 0.000000e+00 0.000000e+00
8.906250e-01 0.000000e+00 0.000000e+00
9.062500e-01 0.000000e+00 0.000000e+00
9.218750e-01 0.000000e+00 0.000000e+00
9.375000e-01 0.000000e+00 0.000000e+00
9.531250e-01 0.000000e+00 0.000000e+00
9.687500e-01 0.000000e+00 0.000000e+00
9.843750e-01 0.000000e+00 0.000000e+00
1.000000e+00 0.000000e+00 0.000000e+00
0.000000e+00 1.562500e-02 0.000000e+00
1.562500e-02 1.562500e-02 0.000000e+00
3.125000e-02 1.562500e-02 0.000000e+00
4.687500e-02 1.562500e-02 0.000000e+00
6.250000e-02 1.562500e-02 0.000000e+00
7.812500e-02 1.562500e-02 0.000000e+00
9.375000e-02 1.562500e-02 0.000000e+00
1.093750e-01 1.562500e-02 0.000000e+00
1.250000e-01 1.562500e-02 0.000000e+00
1.406250e-01 1.562500e-02 0.000000e+00
1.562500e-01 1.562500e-02 0.000000e+00
1.718750e-01 1.562500e-02 0.000000e+00
1.875000e-01 1.562500e-02 0.000000e+00
2.031250e-01 1.562500e-02 0.000000e+00
2.187500e-01 1.562500e-02 0.000000e+00
2.343750e-01 1.562500e-02 0.000000e+00
2.500000e-01 1.562500e-02 0.000000e+00
2.656250e-01 1.562500e-02 0.000000e+00
2.812500e-01 1.562500e-02 0.000000e+00
2.968750e-01 1.562500e-02 0.000000e+00
3.125000e-01 1.562500e-02 0.000000e+00
3.281250e-01 1.562500e-02 0.000000e+00
3.437500e-01 1.562500e-02 0.000000e+00
3.593750e-01 1.562500e-02 0.000000e+00
3.750000e-01 1.562500e-02 0.000000e+00
3.906250e-01 1.562500e-02 0.000000e+00
4.062500e-01 1.562500e-02 0.000000e+00
4.218750e-01 1.562500e-02 0.000000e+00
4.375000e-01 1.562500e-02 0.000000e+00
4.531250e-01 1.562500e-02 0.000000e+00
4.687500e-01 1.562500e-02 0.000000e+00
4.843750e-01 1.562500e-02 0.000000e+00
5.000000e-01 1.562500e-02 0.000000e+00
5.156250e-01 1.562500e-02 0.000000e+00
5.312500e-01 1.562500e-02 0.000000e+00
5.468750e-01 1.562500e-02 0.000000e+00
5.625000e-01 1.562500e-02 0.000000e+00
5.781250e-01 1.562500e-02 0.000000e+00
5.937500e-01 1.562500e-02 0.000000e+00
6.093750e-01 1.562500e-02 0.000000e+00
6.250000e-01 1.562500e-02 0.000000e+00
6.406250e-01 1.562500e-02 0.000000e+00
6.562500e-01 1.562500e-02 0.000000e+00
6.718750e-01 1.562500e-02 0.000000e+00
6.875000e-01 1.562500e-02 0.000000e+00
7.031250e-01 1.562500e-02 0.000000e+00
7.187500e-01 1.562500e-02 0.000000e+00
7.343750e-01 1.562500e-02 0.000000e+00
7.500000e-01 1.562500e-02 0.000000e+00
7.656250e-01 1.562500e-02 0.000000e+00
7.812500e-01 1.562500e-02 0.000000e+00
7.968750e-01 1.562500e-02 0.000000e+00
8.125000e-01 1.562500e-02 0.000000e+00
8.281250e-01 1.562500e-02 0.000000e+00
8.437500e-01 1.562500e-02 0.000000e+00
8.593750e-01 1.562500e-02 0.000000e+00
8.750000e-01 1.562500e-02 0.000000e+00
8.906250e-01 1.562500e-02 0.000000e+00
9.062500e-01 1.562500e-02 0.000000e+00
9.218750e-01 1.562500e-02 0.000000e+00
9.375000e-01 1.562500e-02 0.000000e+00
9.531250e-01 1.562500e-02 0.000000e+00
9.687500e-01 1.562500e-02 0.000000e+00
9.843750e-01 1.562500e-02 0.000000e+00
1.000000e+00 1.562500e-02 0.000000e+00
0.000000e+00 3.125000e-02 0.000000e+00
1.562500e-02 3.125000e-02 0.000000e+00
3.125000e-02 3.125000e-02 0.000000e+00
4.687500e-02 3.125000e-02 0.000000e+00
6.250000e-02 3.125000e-02 0.000000e+00
7.812500e-02 3.125000e-02 0.000000e+00
9.375000e-02 3.125000e-02 0.000000e+00
1.093750e-01 3.125000e-02 0.000000e+00
1.250000e-01 3.125000e-02 0.000000e+00
1.406250e-01 3.125000e-02 0.000000e+00
1.562500e-01 3.125000e-02 0.000000e+00
1.718750e-01 3.125000e-02 0.000000e+00
1.875000e-01 3.125000e-02 0.000000e+00
2.031250e-01 3.125000e-02 0.000000e+00
2.187500e-01 3.125000e-02 0.000000e+00
2.343750e-01 3.125000e-02 0.000000e+00
2.500000e-01 3.125000e-02 0.000000e+00
2.656250e-01 3.125000e-02 0.000000e+00
2.812500e-01 3.125000e-02 0.000000e+00
2.968750e-01 3.125000e-02 0.000000e+00
3.125000e-01 3.125000e-02 0.000000e+00
3.281250e-01 3.125000e-02 0.000000e+00
3.437500e-01 3.125000e-02 0.000000e+00
3.593750e-01 3.125000e-02 0.000000e+00
3.750000e-01 3.125000e-02 0.000000e+00
3.906250e-01 3.125000e-02 0.000000e+00
4.062500e-01 3.125000e-02 0.000000e+00
4.218750e-01 3.125000e-02 0.000000e+00
4.375000e-01 3.125000e-02 0.000000e+00
4.531250e-01 3.125000e-02 0.000000e+00
4.687500e-01 3.125000e-02 0.000000e+00
4.843750e-01 3.125000e-02 0.000000e+00
5.000000e-01 3.125000e-02 0.000000e+00
5.156250e-01 3.125000e-02 0.000000e+00
5.312500e-01 3.125000e-02 0.000000e+00
5.468750e-01 3.125000e-02 0.000000e+00
5.625000e-01 3.125000e-02 0.000000e+00
5.781250e-01 3.125000e-02 0.000000e+00
5.937500e-01 3.125000e-02 0.000000e+00
6.093750e-01 3.125000e-02 0.000000e+00
6.250000e-01 3.125000e-02 0.000000e+00
6.406250e-01 3.125000e-02 0.000000e+00
6.562500e-01 3.125000e-02 0.000000e+00
6.718750e-01 3.125000e-02 0.000000e+00
6.875000e-01 3.125000e-02 0.000000e+00
7.031250e-01 3.125000e-02 0.000000e+00
7.187500e-01 3.125000e-02 0.000000e+00
7.343750e-01 3.125000e-02 0.000000e+00
7.500000e-01 3.125000e-02 0.000000e+00
7.656250e-01 3.125000e-02 0.000000e+00
7.812500e-01 3.125000e-02 0.000000e+00
7.968750e-01 3.125000e-02 0.000000e+00
8.125000e-01 3.125000e-02 0.000000e+00
8.281250e-01 3.125000e-02 0.000000e+00
8.437500e-01 3.125000e-02 0.000000e+00
8.593750e-01 3.125000e-02 0.000000e+00
8.750000e-01 3.125000e-02 0.000000e+00
8.906250e-01 3.125000e-02 0.000000e+00
9.062500e-01 3.125000e-02 0.000000e+00
9.218750e-01 3.125000e-02 0.000000e+00
9.375000e-01 3.125000e-02 0.000000e+00
9.531250e-01 3.125000e-02 0.000000e+00
9.687500e-01 3.125000e-02 0.000000e+00
9.843750e-01 3.125000e-02 0.000000e+00
1.000000e+00 3.125000e-02 0.000000e+00
0.000000e+00 4.687500e-02 0.000000e+00
1.562500e-02 4.687500e-02 0.000000e+00
3.125000e-02 4.687500e-02 0.000000e+00
4.687500e-02 4.687500e-02 0.000000e+00
6.250000e-02 4.687500e-02 0.000000e+00
7.812500e-02 4.687500e-02 0.000000e+00
9.375000e-02 4.687500e-02 0.000000e+00
1.093750e-01 4.687500e-02 0.000000e+00
1.250000e-01 4.687500e-02 0.000000e+00
1.406250e-01 4.687500e-02 0.000000e+00
1.562500e-01 4.687500e-02 0.000000e+00
1.718750e-01 4.687500e-02 0.000000e+00
1.875000e-01 4.687500e-02 0.000000e+00
2.031250e-01 4.687500e-02 0.000000e+00
2.187500e-01 4.687500e-02 0.000000e+00
2.343750e-01 4.687500e-02 0.000000e+00
2.500000e-01 4.687500e-02 0.000000e+00
2.656250e-01 4.687500e-02 0.000000e+00
2.812500e-01 4.687500e-02 0.000000e+00
2.968750e-01 4.687500e-02 0.000000e+00
3.125000e-01 4.687500e-02 0.000000e+00
3.281250e-01 4.687500e-02 0.000000e+00
3.437500e-01 4.687500e-02 0.000000e+00
3.593750e-01 4.687500e-02 0.000000e+00
3.750000e-01 4.687500e-02 0.000000e+00
3.906250e-01 4.687500e-02 0.000000e+00
4.062500e-01 4.687500e-02 0.000000e+00
4.218750e-01 4.687500e-02 0.000000e+00
4.375000e-01 4.687500e-02 0.000000e+00
4.531250e-01 4.687500e-02 0.000000e+00
4.687500e-01 4.687500e-02 0.000000e+00
4.843750e-01 4.687500e-02 0.000000e+00
5.000000e-01 4.687500e-02 0.000000e+00
5.156250e-01 4.687500e-02 0.000000e+00
5.312500e-01 4.687500e-02 0.000000e+00
5.468750e-01 4.687500e-02 0.000000e+00
5.625000e-01 4.687500e-02 0.000000e+00
5.781250e-01 4.687500e-02 0.000000e+00
5.937500e-01 4.687500e-02 0.000000e+00
6.093750e-01 4.687500e-02 0.000000e+00
6.250000e-01 4.687500e-02 0.000000e+00
6.406250e-01 4.687500e-02 0.000000e+00
6.562500e-01 4.687500e-02 0.000000e+00
6.718750e-01 4.687500e-02 0.000000e+00
6.875000e-01 4.687500e-02 0.000000e+00
7.031250e-01 4.687500e-02 0.000000e+00
7.187500e-01 4.687500e-02 0.000000e+00
7.343750e-01 4.687500e-02 0.000000e+00
7.500000e-01 4.687500e-02 0.000000e+00
7.656250e-01 4.687500e-02 0.000000e+00
7.812500e-01 4.687500e-02 0.000000e+00
7.968750e-01 4.687500e-02 0.000000e+00
8.125000e-01 4.687500e-02 0.000000e+00
8.281250e-01 4.687500e-02 0.000000e+00
8.437500e-01 4.687500e-02 0.000000e+00
8.593750e-01 4.687500e-02 0.000000e+00
[...]
<PointData>
<DataArray Name="Velocity" type="Float64" format="ascii" NumberOfComponents="3">
0.000000e+00 0.000000e+00 0
0.000000e+00 0.000000e+00 0
0.000000e+00 0.000000e+00 0
0.000000e+00 0.000000e+00 0
0.000000e+00 0.000000e+00 0
0.000000e+00 0.000000e+00 0
0.000000e+00 0.000000e+00 0
0.000000e+00 0.000000e+00 0
0.000000e+00 0.000000e+00 0
0.000000e+00 0.000000e+00 0
0.000000e+00 0.000000e+00 0
0.000000e+00 0.000000e+00 0
0.000000e+00 0.000000e+00 0
0.000000e+00 0.000000e+00 0
0.000000e+00 0.000000e+00 0
0.000000e+00 0.000000e+00 0
0.000000e+00 0.000000e+00 0
0.000000e+00 0.000000e+00 0
0.000000e+00 0.000000e+00 0
0.000000e+00 0.000000e+00 0
0.000000e+00 0.000000e+00 0
0.000000e+00 0.000000e+00 0
0.000000e+00 0.000000e+00 0
0.000000e+00 0.000000e+00 0
0.000000e+00 0.000000e+00 0
0.000000e+00 0.000000e+00 0
0.000000e+00 0.000000e+00 0
0.000000e+00 0.000000e+00 0
0.000000e+00 0.000000e+00 0
0.000000e+00 0.000000e+00 0
0.000000e+00 0.000000e+00 0
0.000000e+00 0.000000e+00 0
0.000000e+00 0.000000e+00 0
0.000000e+00 0.000000e+00 0
0.000000e+00 0.000000e+00 0
0.000000e+00 0.000000e+00 0
0.000000e+00 0.000000e+00 0
0.000000e+00 0.000000e+00 0
0.000000e+00 0.000000e+00 0
0.000000e+00 0.000000e+00 0
0.000000e+00 0.000000e+00 0
0.000000e+00 0.000000e+00 0
0.000000e+00 0.000000e+00 0
0.000000e+00 0.000000e+00 0
0.000000e+00 0.000000e+00 0
0.000000e+00 0.000000e+00 0
0.000000e+00 0.000000e+00 0
0.000000e+00 0.000000e+00 0
0.000000e+00 0.000000e+00 0
0.000000e+00 0.000000e+00 0
0.000000e+00 0.000000e+00 0
0.000000e+00 0.000000e+00 0
0.000000e+00 0.000000e+00 0
0.000000e+00 0.000000e+00 0
0.000000e+00 0.000000e+00 0
0.000000e+00 0.000000e+00 0
0.000000e+00 0.000000e+00 0
0.000000e+00 0.000000e+00 0
0.000000e+00 0.000000e+00 0
0.000000e+00 0.000000e+00 0
0.000000e+00 0.000000e+00 0
0.000000e+00 0.000000e+00 0
0.000000e+00 0.000000e+00 0
0.000000e+00 0.000000e+00 0
0.000000e+00 0.000000e+00 0
0.000000e+00 0.000000e+00 0
1.388066e-04 -1.118685e-04 0
3.784173e-04 -1.655592e-04 0
6.134522e-04 -1.646983e-04 0
7.830486e-04 -1.325565e-04 0
8.597405e-04 -8.297504e-05 0
8.334862e-04 -2.264642e-05 0
7.002198e-04 4.371810e-05 0
4.551942e-04 1.111227e-04 0
9.233491e-05 1.757447e-04 0
-3.943899e-04 2.370714e-04 0
-1.010188e-03 2.982419e-04 0
-1.759697e-03 3.645602e-04 0
-2.648697e-03 4.402645e-04 0
-3.685375e-03 5.261453e-04 0
-4.879808e-03 6.195208e-04 0
-6.241744e-03 7.162906e-04 0
-7.777889e-03 8.133558e-04 0
-9.490104e-03 9.097865e-04 0
-1.137511e-02 1.006122e-03 0
-1.342513e-02 1.102648e-03 0
-1.562855e-02 1.197983e-03 0
-1.796988e-02 1.288736e-03 0
-2.042906e-02 1.370274e-03 0
-2.298047e-02 1.437872e-03 0
-2.559249e-02 1.487460e-03 0
-2.822760e-02 1.515717e-03 0
-3.084303e-02 1.519727e-03 0
-3.339162e-02 1.496564e-03 0
-3.582274e-02 1.443168e-03 0
-3.808296e-02 1.356519e-03 0
-4.011689e-02 1.233964e-03 0
-4.186808e-02 1.073446e-03 0
-4.328020e-02 8.736273e-04 0
-4.429852e-02 6.341071e-04 0
-4.487203e-02 3.568000e-04 0
-4.495670e-02 5.280838e-05 0
-4.452121e-02 -2.733507e-04 0
-4.352756e-02 -6.259450e-04 0
-4.195189e-02 -9.981293e-04 0
-3.978834e-02 -1.375993e-03 0
-3.705109e-02 -1.743783e-03 0
-3.377585e-02 -2.084547e-03 0
-3.002107e-02 -2.380467e-03 0
-2.586847e-02 -2.613545e-03 0
-2.142278e-02 -2.766676e-03 0
-1.681008e-02 -2.825077e-03 0
-1.217446e-02 -2.777892e-03 0
-7.672725e-03 -2.619504e-03 0
-3.467079e-03 -2.349356e-03 0
2.832581e-04 -1.976269e-03 0
3.428242e-03 -1.533823e-03 0
5.856450e-03 -1.063790e-03 0
7.533375e-03 -6.001471e-04 0
8.474870e-03 -1.759685e-04 0
8.744134e-03 1.855385e-04 0
8.439077e-03 4.746755e-04 0
7.673448e-03 6.911457e-04 0
6.562701e-03 8.378953e-04 0
5.222989e-03 9.156051e-04 0
3.775420e-03 9.177854e-04 0
2.355952e-03 8.262048e-04 0
1.127660e-03 6.133858e-04 0
2.827325e-04 2.774059e-04 0
0.000000e+00 0.000000e+00 0
0.000000e+00 0.000000e+00 0
1.971042e-04 -3.454547e-04 0
4.815868e-04 -4.677672e-04 0
7.259071e-04 -4.215552e-04 0
8.477457e-04 -2.742409e-04 0
8.017045e-04 -7.294126e-05 0
5.624818e-04 1.529459e-04 0
1.151917e-04 3.866715e-04 0
-5.509394e-04 6.207872e-04 0
-1.444998e-03 8.551036e-04 0
-2.575026e-03 1.095503e-03 0
-3.949965e-03 1.350239e-03 0
-5.581102e-03 1.625508e-03 0
-7.482403e-03 1.922942e-03 0
-9.668720e-03 2.239574e-03 0
-1.215265e-02 2.569833e-03 0
-1.494131e-02 2.908037e-03 0
-1.803435e-02 3.249601e-03 0
-2.142358e-02 3.590375e-03 0
-2.509344e-02 3.925033e-03 0
-2.902118e-02 4.245793e-03 0
-3.317656e-02 4.542286e-03 0
-3.752094e-02 4.802562e-03 0
-4.200667e-02 5.014450e-03 0
-4.657713e-02 5.166485e-03 0
-5.116760e-02 5.248207e-03 0
-5.570657e-02 5.250017e-03 0
-6.011730e-02 5.162993e-03 0
-6.431916e-02 4.979017e-03 0
-6.822905e-02 4.691180e-03 0
-7.176282e-02 4.294270e-03 0
-7.483679e-02 3.785167e-03 0
-7.736960e-02 3.163126e-03 0
-7.928413e-02 2.430118e-03 0
-8.050980e-02 1.591555e-03 0
-8.098510e-02 6.580151e-04 0
-8.065927e-02 -3.509317e-04 0
-7.947837e-02 -1.429324e-03 0
-7.740719e-02 -2.569684e-03 0
-7.443531e-02 -3.739752e-03 0
-7.057522e-02 -4.901408e-03 0
-6.586383e-02 -6.013040e-03 0
-6.036399e-02 -7.030423e-03 0
-5.416573e-02 -7.907611e-03 0
-4.738690e-02 -8.598384e-03 0
-4.017313e-02 -9.058446e-03 0
-3.269677e-02 -9.248420e-03 0
-2.515422e-02 -9.137558e-03 0
-1.776122e-02 -8.707712e-03 0
-1.074518e-02 -7.956420e-03 0
-4.333376e-03 -6.895822e-03 0
1.256378e-03 -5.573708e-03 0
5.816826e-03 -4.105622e-03 0
9.207394e-03 -2.618859e-03 0
1.141002e-02 -1.211138e-03 0
1.248147e-02 3.546950e-05 0
1.253943e-02 1.070400e-03 0
1.175434e-02 1.876111e-03 0
1.031336e-02 2.450200e-03 0
8.410874e-03 2.787020e-03 0
6.251799e-03 2.866770e-03 0
4.060040e-03 2.647486e-03 0
2.088941e-03 2.072942e-03 0
6.271649e-04 1.127382e-03 0
0.000000e+00 0.000000e+00 0
0.000000e+00 0.000000e+00 0
1.735334e-04 -5.836235e-04 0
3.756227e-04 -7.230376e-04 0
4.713898e-04 -5.613330e-04 0
3.725934e-04 -2.219036e-04 0
2.659069e-05 2.113858e-04 0
-5.982521e-04 6.865762e-04 0
-1.522622e-03 1.176937e-03 0
-2.760735e-03 1.675701e-03 0
-4.324295e-03 2.188291e-03 0
-6.225418e-03 2.725182e-03 0
-8.478566e-03 3.295486e-03 0
-1.110094e-02 3.902668e-03 0
-1.410995e-02 4.543916e-03 0
-1.751909e-02 5.211989e-03 0
-2.133385e-02 5.897734e-03 0
-2.554957e-02 6.591420e-03 0
-3.015114e-02 7.282255e-03 0
-3.511366e-02 7.957029e-03 0
-4.040284e-02 8.599148e-03 0
-4.597470e-02 9.188858e-03 0
-5.177478e-02 9.704628e-03 0
-5.773786e-02 1.012481e-02 0
-6.378865e-02 1.042884e-02 0
-6.984337e-02 1.059778e-02 0
-7.581194e-02 1.061444e-02 0
-8.160000e-02 1.046344e-02 0
-8.711082e-02 1.013162e-02 0
-9.224694e-02 9.608563e-03 0
-9.691179e-02 8.887227e-03 0
-1.010114e-01 7.964301e-03 0
-1.044562e-01 6.840434e-03 0
-1.071628e-01 5.520431e-03 0
-1.090554e-01 4.013694e-03 0
-1.100672e-01 2.335148e-03 0
-1.101419e-01 5.063450e-04 0
-1.092361e-01 -1.454032e-03 0
-1.072958e-01 -3.525780e-03 0
-1.043105e-01 -5.669461e-03 0
-1.002894e-01 -7.830450e-03 0
-9.526134e-02 -9.947579e-03 0
-8.927658e-02 -1.195484e-02 0
-8.240806e-02 -1.378230e-02 0
-7.475302e-02 -1.535721e-02 0
-6.643411e-02 -1.660595e-02 0
-5.760035e-02 -1.745685e-02 0
-4.842733e-02 -1.784427e-02 0
-3.911645e-02 -1.771387e-02 0
-2.989250e-02 -1.702904e-02 0
-2.099862e-02 -1.577766e-02 0
-1.268701e-02 -1.397818e-02 0
-5.201716e-03 -1.168426e-02 0
1.221632e-03 -9.014927e-03 0
6.356085e-03 -6.193383e-03 0
1.003809e-02 -3.450045e-03 0
1.228576e-02 -9.438649e-04 0
1.318756e-02 1.201788e-03 0
1.291727e-02 2.917176e-03 0
1.170950e-02 4.181294e-03 0
9.809073e-03 4.977071e-03 0
7.474571e-03 5.268518e-03 0
4.985043e-03 4.988957e-03 0
2.651444e-03 4.046155e-03 0
8.362657e-04 2.366244e-03 0
0.000000e+00 0.000000e+00 0
0.000000e+00 0.000000e+00 0
9.353343e-05 -7.342464e-04 0
1.154757e-04 -7.969298e-04 0
-6.435978e-05 -4.311934e-04 0
-5.277542e-04 1.817125e-04 0
-1.322332e-03 9.226955e-04 0
-2.477386e-03 1.723133e-03 0
-4.013171e-03 2.553662e-03 0
-5.945252e-03 3.410616e-03 0
-8.288405e-03 4.303091e-03 0
-1.105957e-02 5.242007e-03 0
-1.427804e-02 6.233052e-03 0
-1.796266e-02 7.274220e-03 0
-2.212693e-02 8.356879e-03 0
-2.677429e-02 9.468168e-03 0
-3.189542e-02 1.059249e-02 0
-3.746803e-02 1.171136e-02 0
-4.345798e-02 1.280243e-02 0
-4.982023e-02 1.383901e-02 0
-5.649896e-02 1.479074e-02 0
-6.342714e-02 1.562546e-02 0
-7.052660e-02 1.631127e-02 0
-7.770919e-02 1.681802e-02 0
-8.487897e-02 1.711815e-02 0
-9.193492e-02 1.718697e-02 0
-9.877356e-02 1.700303e-02 0
-1.052911e-01 1.654861e-02 0
-1.113849e-01 1.581049e-02 0
-1.169555e-01 1.478044e-02 0
-1.219079e-01 1.345556e-02 0
-1.261531e-01 1.183828e-02 0
-1.296096e-01 9.936219e-03 0
-1.322043e-01 7.762227e-03 0
-1.338731e-01 5.334644e-03 0
-1.345612e-01 2.678186e-03 0
-1.342223e-01 -1.732733e-04 0
-1.328164e-01 -3.197450e-03 0
-1.303213e-01 -6.355323e-03 0
-1.267388e-01 -9.576348e-03 0
-1.220861e-01 -1.278881e-02 0
-1.163957e-01 -1.591381e-02 0
-1.097173e-01 -1.886585e-02 0
-1.021187e-01 -2.155365e-02 0
-9.368839e-02 -2.388151e-02 0
-8.453695e-02 -2.575131e-02 0
-7.479932e-02 -2.706572e-02 0
-6.463613e-02 -2.773291e-02 0
-5.423462e-02 -2.767293e-02 0
-4.380831e-02 -2.682596e-02 0
-3.359464e-02 -2.516216e-02 0
-2.384922e-02 -2.269283e-02 0
-1.483476e-02 -1.948235e-02 0
-6.803351e-03 -1.566337e-02 0
1.305440e-06 -1.143526e-02 0
5.332753e-03 -7.140793e-03 0
9.035435e-03 -3.114028e-03 0
1.114133e-02 4.388340e-04 0
1.178600e-02 3.354083e-03 0
1.122280e-02 5.558290e-03 0
9.734841e-03 7.021841e-03 0
7.619459e-03 7.690693e-03 0
5.195213e-03 7.470508e-03 0
2.816492e-03 6.221618e-03 0
9.027920e-04 3.778727e-03 0
0.000000e+00 0.000000e+00 0
0.000000e+00 0.000000e+00 0
-2.199101e-05 -7.251923e-04 0
-2.591861e-04 -5.816087e-04 0
-8.223517e-04 9.165529e-05 0
-1.769761e-03 1.061429e-03 0
-3.132907e-03 2.183347e-03 0
-4.931677e-03 3.382868e-03 0
-7.181471e-03 4.632915e-03 0
-9.897775e-03 5.933456e-03 0
-1.309869e-02 7.294083e-03 0
-1.680493e-02 8.722012e-03 0
-2.103644e-02 1.021647e-02 0
-2.580688e-02 1.176804e-02 0
-3.111826e-02 1.336047e-02 0
-3.695769e-02 1.497225e-02 0
-4.329710e-02 1.657688e-02 0
-5.009468e-02 1.814249e-02 0
-5.729657e-02 1.963182e-02 0
-6.483768e-02 2.100354e-02 0
-7.264181e-02 2.221458e-02 0
-8.062210e-02 2.322266e-02 0
-8.868253e-02 2.398811e-02 0
-9.672045e-02 2.447498e-02 0
-1.046296e-01 2.465149e-02 0
-1.123032e-01 2.449056e-02 0
-1.196356e-01 2.397045e-02 0
-1.265248e-01 2.307549e-02 0
-1.328731e-01 2.179661e-02 0
-1.385889e-01 2.013150e-02 0
-1.435878e-01 1.808438e-02 0
-1.477932e-01 1.566565e-02 0
-1.511376e-01 1.289160e-02 0
-1.535622e-01 9.784160e-03 0
-1.550170e-01 6.370781e-03 0
-1.554600e-01 2.684167e-03 0
-1.548555e-01 -1.238940e-03 0
-1.531703e-01 -5.355385e-03 0
-1.504033e-01 -9.603405e-03 0
-1.465573e-01 -1.390441e-02 0
-1.416463e-01 -1.817297e-02 0
-1.356962e-01 -2.231580e-02 0
-1.287462e-01 -2.623161e-02 0
-1.208509e-01 -2.981137e-02 0
-1.120821e-01 -3.293948e-02 0
-1.025318e-01 -3.549567e-02 0
-9.231437e-02 -3.735831e-02 0
-8.156918e-02 -3.840947e-02 0
-7.046289e-02 -3.854200e-02 0
-5.919065e-02 -3.766913e-02 0
-4.797607e-02 -3.573672e-02 0
-3.706851e-02 -3.273796e-02 0
-2.673681e-02 -2.873002e-02 0
-1.725836e-02 -2.385093e-02 0
-8.906858e-03 -1.832948e-02 0
-1.922995e-03 -1.248422e-02 0
3.427264e-03 -6.752534e-03 0
7.024596e-03 -1.548887e-03 0
8.910821e-03 2.835592e-03 0
9.304957e-03 6.232335e-03 0
8.533247e-03 8.580302e-03 0
6.928448e-03 9.808045e-03 0
4.843813e-03 9.791825e-03 0
2.669317e-03 8.338479e-03 0
8.621010e-04 5.182639e-03 0
0.000000e+00 0.000000e+00 0
0.000000e+00 0.000000e+00 0
-1.608430e-04 -4.995615e-04 0
-7.247144e-04 8.083529e-06 0
-1.759762e-03 1.102686e-03 0
-3.285602e-03 2.514990e-03 0
-5.308264e-03 4.091403e-03 0
-7.831939e-03 5.760534e-03 0
-1.086528e-02 7.501591e-03 0
-1.442339e-02 9.317517e-03 0
-1.852642e-02 1.121560e-02 0
-2.319492e-02 1.319672e-02 0
-2.844324e-02 1.525167e-02 0
-3.427326e-02 1.736171e-02 0
-4.067047e-02 1.950000e-02 0
-4.760339e-02 2.163234e-02 0
-5.502519e-02 2.371747e-02 0
-6.287595e-02 2.570770e-02 0
-7.108421e-02 2.755083e-02 0
-7.956777e-02 2.919300e-02 0
-8.823468e-02 3.058170e-02 0
-9.698495e-02 3.166792e-02 0
-1.057132e-01 3.240757e-02 0
-1.143120e-01 3.276208e-02 0
-1.226745e-01 3.269899e-02 0
-1.306970e-01 3.219273e-02 0
-1.382803e-01 3.122527e-02 0
-1.453313e-01 2.978656e-02 0
-1.517632e-01 2.787453e-02 0
-1.574974e-01 2.549474e-02 0
-1.624632e-01 2.265968e-02 0
-1.665985e-01 1.938831e-02 0
-1.698495e-01 1.570553e-02 0
-1.721702e-01 1.164171e-02 0
-1.735218e-01 7.232141e-03 0
-1.738719e-01 2.516284e-03 0
-1.731937e-01 -2.463171e-03 0
-1.714657e-01 -7.649503e-03 0
-1.686814e-01 -1.296779e-02 0
-1.648392e-01 -1.833272e-02 0
-1.599453e-01 -2.364950e-02 0
-1.540146e-01 -2.881383e-02 0
-1.470724e-01 -3.371147e-02 0
-1.391570e-01 -3.821835e-02 0
-1.303215e-01 -4.220128e-02 0
-1.206369e-01 -4.551969e-02 0
-1.101954e-01 -4.802876e-02 0
-9.911320e-02 -4.958453e-02 0
-8.753388e-02 -5.005140e-02 0
-7.563134e-02 -4.931262e-02 0
-6.361158e-02 -4.728414e-02 0
-5.171294e-02 -4.393197e-02 0
-4.020350e-02 -3.929247e-02 0
-2.937469e-02 -3.349336e-02 0
-1.952985e-02 -2.677071e-02 0
-1.096378e-02 -1.947503e-02 0
-3.935202e-03 -1.206175e-02 0
1.320865e-03 -5.044846e-03 0
4.724881e-03 1.073610e-03 0
6.344482e-03 5.935761e-03 0
6.527987e-03 9.398252e-03 0
5.651104e-03 1.138003e-02 0
4.105675e-03 1.172954e-02 0
2.313878e-03 1.020323e-02 0
7.545376e-04 6.447947e-03 0
0.000000e+00 0.000000e+00 0
0.000000e+00 0.000000e+00 0
-3.180476e-04 -1.298828e-05 0
-1.265097e-03 1.036498e-03 0
-2.840817e-03 2.674420e-03 0
-5.013883e-03 4.618043e-03 0
-7.756453e-03 6.720112e-03 0
-1.105434e-02 8.921943e-03 0
-1.490906e-02 1.121244e-02 0
-1.933437e-02 1.359735e-02 0
-2.434899e-02 1.608039e-02 0
-2.996780e-02 1.865472e-02 0
-3.619377e-02 2.130105e-02 0
-4.301297e-02 2.398865e-02 0
-5.039329e-02 2.667658e-02 0
-5.828596e-02 2.931474e-02 0
-6.662810e-02 3.184545e-02 0
-7.534490e-02 3.420596e-02 0
-8.435112e-02 3.633187e-02 0
-9.355252e-02 3.816059e-02 0
-1.028479e-01 3.963392e-02 0
-1.121320e-01 4.069964e-02 0
-1.212984e-01 4.131243e-02 0
-1.302427e-01 4.143445e-02 0
-1.388645e-01 4.103614e-02 0
-1.470688e-01 4.009680e-02 0
-1.547674e-01 3.860496e-02 0
-1.618791e-01 3.655818e-02 0
-1.683306e-01 3.396247e-02 0
-1.740567e-01 3.083151e-02 0
-1.790001e-01 2.718587e-02 0
-1.831109e-01 2.305236e-02 0
-1.863459e-01 1.846335e-02 0
-1.886682e-01 1.345613e-02 0
-1.900461e-01 8.072098e-03 0
-1.904528e-01 2.355948e-03 0
-1.898659e-01 -3.644755e-03 0
-1.882669e-01 -9.866998e-03 0
-1.856421e-01 -1.622921e-02 0
-1.819826e-01 -2.264008e-02 0
-1.772850e-01 -2.899776e-02 0
-1.715525e-01 -3.518927e-02 0
-1.647968e-01 -4.108995e-02 0
-1.570394e-01 -4.656303e-02 0
-1.483147e-01 -5.146001e-02 0
-1.386727e-01 -5.562188e-02 0
-1.281823e-01 -5.888198e-02 0
-1.169352e-01 -6.107082e-02 0
-1.050505e-01 -6.202363e-02 0
-9.267799e-02 -6.159126e-02 0
-8.000293e-02 -5.965504e-02 0
-6.724828e-02 -5.614606e-02 0
-5.467575e-02 -5.106836e-02 0
-4.258304e-02 -4.452470e-02 0
-3.129574e-02 -3.674052e-02 0
-2.115039e-02 -2.807900e-02 0
-1.246712e-02 -1.903730e-02 0
-5.515460e-03 -1.020908e-02 0
-4.667860e-04 -2.188126e-03 0
2.636890e-03 4.429129e-03 0
3.984222e-03 9.273580e-03 0
4.004169e-03 1.223026e-02 0
3.138745e-03 1.312895e-02 0
1.844731e-03 1.168952e-02 0
6.150269e-04 7.496421e-03 0
0.000000e+00 0.000000e+00 0
0.000000e+00 0.000000e+00 0
-4.922890e-04 7.664992e-04 0
-1.866335e-03 2.551333e-03 0
-4.030934e-03 4.860885e-03 0
-6.892683e-03 7.423398e-03 0
-1.038608e-02 1.011539e-02 0
-1.447802e-02 1.290072e-02 0
-1.916248e-02 1.578222e-02 0
-2.444921e-02 1.876975e-02 0
-3.035087e-02 2.186347e-02 0
-3.687167e-02 2.504784e-02 0
-4.399994e-02 2.829136e-02 0
-5.170555e-02 3.154833e-02 0
-5.994078e-02 3.476104e-02 0
-6.864286e-02 3.786248e-02 0
-7.773658e-02 4.077969e-02 0
-8.713626e-02 4.343795e-02 0
-9.674770e-02 4.576463e-02 0
-1.064705e-01 4.769220e-02 0
-1.162009e-01 4.916020e-02 0
-1.258353e-01 5.011623e-02 0
-1.352724e-01 5.051672e-02 0
-1.444158e-01 5.032768e-02 0
-1.531750e-01 4.952517e-02 0
-1.614665e-01 4.809557e-02 0
-1.692140e-01 4.603519e-02 0
-1.763491e-01 4.334955e-02 0
-1.828109e-01 4.005239e-02 0
-1.885459e-01 3.616481e-02 0
-1.935072e-01 3.171433e-02 0
-1.976534e-01 2.673418e-02 0
-2.009485e-01 2.126249e-02 0
-2.033605e-01 1.534148e-02 0
-2.048615e-01 9.016744e-03 0
-2.054270e-01 2.336645e-03 0
-2.050360e-01 -4.648243e-03 0
-2.036696e-01 -1.187265e-02 0
-2.013092e-01 -1.925189e-02 0
-1.979393e-01 -2.669014e-02 0
-1.935483e-01 -3.408022e-02 0
-1.881288e-01 -4.130280e-02 0
-1.816797e-01 -4.822523e-02 0
-1.742070e-01 -5.470071e-02 0
-1.657265e-01 -6.056795e-02 0
-1.562670e-01 -6.565189e-02 0
-1.458736e-01 -6.976588e-02 0
-1.346121e-01 -7.271605e-02 0
-1.225746e-01 -7.430851e-02 0
-1.098841e-01 -7.436015e-02 0
-9.670109e-02 -7.271392e-02 0
-8.322819e-02 -6.925927e-02 0
-6.971441e-02 -6.395784e-02 0
-5.645628e-02 -5.687351e-02 0
-4.379373e-02 -4.820349e-02 0
-3.209730e-02 -3.830376e-02 0
-2.174291e-02 -2.769678e-02 0
-1.307221e-02 -1.704529e-02 0
-6.338335e-03 -7.078844e-03 0
-1.628794e-03 1.484647e-03 0
1.074455e-03 8.030869e-03 0
2.145223e-03 1.222540e-02 0
2.063300e-03 1.388888e-02 0
1.334424e-03 1.272686e-02 0
4.695811e-04 8.292588e-03 0
0.000000e+00 0.000000e+00 0
0.000000e+00 0.000000e+00 0
-6.825774e-04 1.861580e-03 0
-2.513033e-03 4.586035e-03 0
-5.291837e-03 7.696402e-03 0
-8.857633e-03 1.095918e-02 0
-1.310625e-02 1.429380e-02 0
-1.798584e-02 1.769791e-02 0
-2.348117e-02 2.119407e-02 0
-2.959446e-02 2.479884e-02 0
-3.632814e-02 2.850911e-02 0
-4.367304e-02 3.229929e-02 0
-5.160279e-02 3.612325e-02 0
-6.007326e-02 3.991817e-02 0
-6.902455e-02 4.360891e-02 0
-7.838367e-02 4.711288e-02 0
-8.806686e-02 5.034507e-02 0
-9.798184e-02 5.322266e-02 0
-1.080304e-01 5.566846e-02 0
-1.181116e-01 5.761326e-02 0
-1.281247e-01 5.899704e-02 0
-1.379722e-01 5.976983e-02 0
-1.475616e-01 5.989246e-02 0
-1.568064e-01 5.933691e-02 0
-1.656273e-01 5.808651e-02 0
-1.739520e-01 5.613535e-02 0
-1.817159e-01 5.348741e-02 0
-1.888615e-01 5.015546e-02 0
-1.953380e-01 4.616001e-02 0
-2.011007e-01 4.152828e-02 0
-2.061096e-01 3.629334e-02 0
-2.103293e-01 3.049322e-02 0
-2.137276e-01 2.417002e-02 0
-2.162759e-01 1.736926e-02 0
-2.179484e-01 1.013935e-02 0
-2.187219e-01 2.531383e-03 0
-2.185761e-01 -5.401521e-03 0
-2.174929e-01 -1.359369e-02 0
-2.154514e-01 -2.195998e-02 0
-2.124320e-01 -3.040186e-02 0
-2.084168e-01 -3.880902e-02 0
-2.033901e-01 -4.705826e-02 0
-1.973389e-01 -5.501185e-02 0
-1.902546e-01 -6.251595e-02 0
-1.821350e-01 -6.939956e-02 0
-1.729873e-01 -7.547446e-02 0
-1.628320e-01 -8.053662e-02 0
-1.517077e-01 -8.436972e-02 0
-1.396770e-01 -8.675168e-02 0
-1.268330e-01 -8.746484e-02 0
-1.133069e-01 -8.631111e-02 0
-9.927548e-02 -8.313288e-02 0
-8.496791e-02 -7.784038e-02 0
-7.067117e-02 -7.044549e-02 0
-5.673043e-02 -6.109960e-02 0
-4.354146e-02 -5.012992e-02 0
-3.152963e-02 -3.806250e-02 0
-2.111023e-02 -2.561376e-02 0
-1.262753e-02 -1.363165e-02 0
-6.279204e-03 -2.983766e-03 0
-2.080857e-03 5.499469e-03 0
1.639325e-04 1.124132e-02 0
9.535842e-04 1.393967e-02 0
8.287998e-04 1.328316e-02 0
3.342531e-04 8.830768e-03 0
0.000000e+00 0.000000e+00 0
0.000000e+00 0.000000e+00 0
-8.857981e-04 3.286605e-03 0
-3.185058e-03 7.159158e-03 0
-6.581428e-03 1.119429e-02 0
-1.084343e-02 1.522763e-02 0
-1.582869e-02 1.924305e-02 0
-2.146611e-02 2.328514e-02 0
-2.772891e-02 2.740320e-02 0
-3.460852e-02 3.162315e-02 0
-4.209495e-02 3.593852e-02 0
-5.016568e-02 4.031194e-02 0
-5.878178e-02 4.468092e-02 0
-6.788840e-02 4.896505e-02 0
-7.741700e-02 5.307322e-02 0
-8.728773e-02 5.691032e-02 0
-9.741188e-02 6.038299e-02 0
-1.076947e-01 6.340380e-02 0
-1.180384e-01 6.589401e-02 0
-1.283458e-01 6.778511e-02 0
-1.385227e-01 6.901978e-02 0
-1.484801e-01 6.955267e-02 0
-1.581350e-01 6.935066e-02 0
-1.674114e-01 6.839291e-02 0
-1.762399e-01 6.667024e-02 0
-1.845588e-01 6.418403e-02 0
-1.923130e-01 6.094510e-02 0
-1.994535e-01 5.697243e-02 0
-2.059373e-01 5.229212e-02 0
-2.117254e-01 4.693637e-02 0
-2.167830e-01 4.094245e-02 0
-2.210787e-01 3.435183e-02 0
-2.245839e-01 2.720940e-02 0
-2.272729e-01 1.956312e-02 0
-2.291224e-01 1.146374e-02 0
-2.301114e-01 2.964892e-03 0