<?xml version="1.0"?>
<VTKFile type="StructuredGrid">
<StructuredGrid WholeExtent="0 8 0 8 0 0 ">
<Piece Extent="0 8 0 8 0 0 ">
<Points>
<DataArray type="Float64" format="ascii" NumberOfComponents="3">
0.000000e+00 0.000000e+00 0.000000e+00
1.250000e-01 0.000000e+00 0.000000e+00
2.500000e-01 0.000000e+00 0.000000e+00
3.750000e-01 0.000000e+00 0.000000e+00
5.000000e-01 0.000000e+00 0.000000e+00
6.250000e-01 0.000000e+00 0.000000e+00
7.500000e-01 0.000000e+00 0.000000e+00
8.750000e-01 0.000000e+00 0.000000e+00
1.000000e+00 0.000000e+00 0.000000e+00
0.000000e+00 1.250000e-01 0.000000e+00
1.250000e-01 1.250000e-01 0.000000e+00
2.500000e-01 1.250000e-01 0.000000e+00
3.750000e-01 1.250000e-01 0.000000e+00
5.000000e-01 1.250000e-01 0.000000e+00
6.250000e-01 1.250000e-01 0.000000e+00
7.500000e-01 1.250000e-01 0.000000e+00
8.750000e-01 1.250000e-01 0.000000e+00
1.000000e+00 1.250000e-01 0.000000e+00
0.000000e+00 2.500000e-01 0.000000e+00
1.250000e-01 2.500000e-01 0.000000e+00
2.500000e-01 2.500000e-01 0.000000e+00
3.750000e-01 2.500000e-01 0.000000e+00
5.000000e-01 2.500000e-01 0.000000e+00
6.250000e-01 2.500000e-01 0.000000e+00
7.500000e-01 2.500000e-01 0.000000e+00
8.750000e-01 2.500000e-01 0.000000e+00
1.000000e+00 2.500000e-01 0.000000e+00
0.000000e+00 3.750000e-01 0.000000e+00
1.250000e-01 3.750000e-01 0.000000e+00
2.500000e-01 3.750000e-01 0.000000e+00
3.750000e-01 3.750000e-01 0.000000e+00
5.000000e-01 3.750000e-01 0.000000e+00
6.250000e-01 3.750000e-01 0.000000e+00
7.500000e-01 3.750000e-01 0.000000e+00
8.750000e-01 3.750000e-01 0.000000e+00
1.000000e+00 3.750000e-01 0.000000e+00
0.000000e+00 5.000000e-01 0.000000e+00
1.250000e-01 5.000000e-01 0.000000e+00
2.500000e-01 5.000000e-01 0.000000e+00
3.750000e-01 5.000000e-01 0.000000e+00
5.000000e-01 5.000000e-01 0.000000e+00
6.250000e-01 5.000000e-01 0.000000e+00
7.500000e-01 5.000000e-01 0.000000e+00
8.750000e-01 5.000000e-01 0.000000e+00
1.000000e+00 5.000000e-01 0.000000e+00
0.000000e+00 6.250000e-01 0.000000e+00
1.250000e-01 6.250000e-01 0.000000e+00
2.500000e-01 6.250000e-01 0.000000e+00
3.750000e-01 6.250000e-01 0.000000e+00
5.000000e-01 6.250000e-01 0.000000e+00
6.250000e-01 6.250000e-01 0.000000e+00
7.500000e-01 6.250000e-01 0.000000e+00
8.750000e-01 6.250000e-01 0.000000e+00
1.000000e+00 6.250000e-01 0.000000e+00
0.000000e+00 7.500000e-01 0.000000e+00
1.250000e-01 7.500000e-01 0.000000e+00
2.500000e-01 7.500000e-01 0.000000e+00
3.750000e-01 7.500000e-01 0.000000e+00
5.000000e-01 7.500000e-01 0.000000e+00
6.250000e-01 7.500000e-01 0.000000e+00
7.500000e-01 7.500000e-01 0.000000e+00
8.750000e-01 7.500000e-01 0.000000e+00
1.000000e+00 7.500000e-01 0.000000e+00
0.000000e+00 8.750000e-01 0.000000e+00
1.250000e-01 8.750000e-01 0.000000e+00
2.500000e-01 8.750000e-01 0.000000e+00
3.750000e-01 8.750000e-01 0.000000e+00
5.000000e-01 8.750000e-01 0.000000e+00
6.250000e-01 8.750000e-01 0.000000e+00
7.500000e-01 8.750000e-01 0.000000e+00
8.750000e-01 8.750000e-01 0.000000e+00
1.000000e+00 8.750000e-01 0.000000e+00
0.000000e+00 1.000000e+00 0.000000e+00
1.250000e-01 1.000000e+00 0.000000e+00
2.500000e-01 1.000000e+00 0.000000e+00
3.750000e-01 1.000000e+00 0.000000e+00
5.000000e-01 1.000000e+00 0.000000e+00
6.250000e-01 1.000000e+00 0.000000e+00
7.500000e-01 1.000000e+00 0.000000e+00
8.750000e-01 1.000000e+00 0.000000e+00
1.000000e+00 1.000000e+00 0.000000e+00
</DataArray>
</Points>
<PointData>
<DataArray Name="Velocity" type="Float64" format="ascii" NumberOfComponents="3">
0.000000e+00 0.000000e+00 0
0.000000e+00 0.000000e+00 0
0.000000e+00 0.000000e+00 0
0.000000e+00 0.000000e+00 0
0.000000e+00 0.000000e+00 0
0.000000e+00 0.000000e+00 0
0.000000e+00 0.000000e+00 0
0.000000e+00 0.000000e+00 0
0.000000e+00 0.000000e+00 0
0.000000e+00 0.000000e+00 0
-1.340673e-02 1.216474e-02 0
-3.244390e-02 1.733670e-02 0
-5.247441e-02 1.806432e-02 0
-6.935604e-02 1.368078e-02 0
-7.765146e-02 3.269597e-03 0
-7.118179e-02 -1.396850e-02 0
-4.430930e-02 -3.349879e-02 0
0.000000e+00 0.000000e+00 0
0.000000e+00 0.000000e+00 0
-1.788484e-02 3.244567e-02 0
-3.922954e-02 3.906890e-02 0
-5.922080e-02 3.690866e-02 0
-7.467866e-02 2.517626e-02 0
-8.089516e-02 1.828319e-03 0
-7.220323e-02 -3.334160e-02 0
-4.456964e-02 -7.118255e-02 0
0.000000e+00 0.000000e+00 0
0.000000e+00 0.000000e+00 0
-1.462829e-02 5.139344e-02 0
-3.210770e-02 5.867804e-02 0
-4.814623e-02 5.351488e-02 0
-6.121297e-02 3.534939e-02 0
-6.796393e-02 7.932028e-04 0
-6.262729e-02 -5.029106e-02 0
-4.022350e-02 -1.057013e-01 0
0.000000e+00 0.000000e+00 0
0.000000e+00 0.000000e+00 0
-8.926951e-03 6.455000e-02 0
-1.931521e-02 7.258426e-02 0
-2.801430e-02 6.602061e-02 0
-3.609486e-02 4.499580e-02 0
-4.373955e-02 3.237838e-03 0
-4.517895e-02 -6.108323e-02 0
-3.183531e-02 -1.338085e-01 0
0.000000e+00 0.000000e+00 0
0.000000e+00 0.000000e+00 0
-5.457491e-03 7.070997e-02 0
-7.388180e-03 7.776011e-02 0
-5.689331e-03 7.029230e-02 0
-4.194915e-03 5.108014e-02 0
-6.866582e-03 9.878758e-03 0
-1.557291e-02 -6.219799e-02 0
-1.559220e-02 -1.508811e-01 0
0.000000e+00 0.000000e+00 0
0.000000e+00 0.000000e+00 0
-7.516128e-03 7.194063e-02 0
2.881586e-03 7.281803e-02 0
1.772938e-02 6.282263e-02 0
3.106168e-02 4.617167e-02 0
3.734707e-02 1.461908e-02 0
3.402412e-02 -5.235678e-02 0
1.825943e-02 -1.493823e-01 0
0.000000e+00 0.000000e+00 0
0.000000e+00 0.000000e+00 0
3.349241e-02 6.782786e-02 0
7.193977e-02 5.251745e-02 0
1.063102e-01 4.211307e-02 0
1.347640e-01 3.145963e-02 0
1.524819e-01 6.915752e-03 0
1.493820e-01 -4.310906e-02 0
1.001250e-01 -1.168566e-01 0
0.000000e+00 0.000000e+00 0
1.000000e+00 0.000000e+00 0
1.000000e+00 0.000000e+00 0
1.000000e+00 0.000000e+00 0
1.000000e+00 0.000000e+00 0
1.000000e+00 0.000000e+00 0
1.000000e+00 0.000000e+00 0
1.000000e+00 0.000000e+00 0
1.000000e+00 0.000000e+00 0
1.000000e+00 0.000000e+00 0
</DataArray>
<DataArray Name="Pressure" type="Float64" format="ascii">
-6.656886e-04 -7.694626e-04 -9.720090e-04 -1.030733e-03 -6.777230e-04 4.556019e-04 2.578398e-03 4.757455e-03 5.634078e-03 
-7.012382e-04 -8.119083e-04 -1.086032e-03 -1.333085e-03 -1.184877e-03 -2.116744e-04 1.756097e-03 3.799071e-03 4.615667e-03 
-1.079900e-03 -1.267886e-03 -1.736523e-03 -2.359371e-03 -2.749204e-03 -2.256941e-03 -5.677184e-04 1.383130e-03 2.184653e-03 
-2.055366e-03 -2.360426e-03 -3.102509e-03 -4.107071e-03 -5.087525e-03 -5.255807e-03 -3.853547e-03 -1.693644e-03 -6.913703e-04 
-3.449008e-03 -3.752735e-03 -4.653109e-03 -6.014225e-03 -7.488170e-03 -8.259597e-03 -7.102259e-03 -4.382081e-03 -2.881194e-03 
-4.887266e-03 -5.035135e-03 -5.738368e-03 -7.175399e-03 -8.968884e-03 -1.016087e-02 -8.963654e-03 -4.822487e-03 -2.158698e-03 
-6.207834e-03 -5.985928e-03 -6.064644e-03 -7.201849e-03 -9.007039e-03 -1.022624e-02 -7.785644e-03 4.023324e-04 5.899127e-03 
-8.146374e-03 -6.619439e-03 -5.156239e-03 -6.051171e-03 -7.777711e-03 -7.845910e-03 -1.654074e-03 1.424081e-02 2.477100e-02 
-9.441315e-03 -6.871257e-03 -4.285737e-03 -5.151830e-03 -6.871445e-03 -5.918570e-03 2.902489e-03 2.348328e-02 3.703395e-02 
</DataArray>
</PointData>
</Piece>
</StructuredGrid>
</VTKFile>
