<?xml version="1.0"?>
<VTKFile type="StructuredGrid">
<StructuredGrid WholeExtent="0 158 0 30 0 0 ">
<Piece Extent="0 158 0 30 0 0 ">
<Points>
<DataArray type="Float64" format="ascii" NumberOfComponents="3">
0.000000e+00 0.000000e+00 0.000000e+00
3.164557e-02 0.000000e+00 0.000000e+00
6.329114e-02 0.000000e+00 0.000000e+00
9.493671e-02 0.000000e+00 0.000000e+00
1.265823e-01 0.000000e+00 0.000000e+00
1.582278e-01 0.000000e+00 0.000000e+00
1.898734e-01 0.000000e+00 0.000000e+00
2.215190e-01 0.000000e+00 0.000000e+00
2.531646e-01 0.000000e+00 0.000000e+00
2.848101e-01 0.000000e+00 0.000000e+00
3.164557e-01 0.000000e+00 0.000000e+00
3.481013e-01 0.000000e+00 0.000000e+00
3.797468e-01 0.000000e+00 0.000000e+00
4.113924e-01 0.000000e+00 0.000000e+00
4.430380e-01 0.000000e+00 0.000000e+00
4.746835e-01 0.000000e+00 0.000000e+00
5.063291e-01 0.000000e+00 0.000000e+00
5.379747e-01 0.000000e+00 0.000000e+00
5.696203e-01 0.000000e+00 0.000000e+00
6.012658e-01 0.000000e+00 0.000000e+00
6.329114e-01 0.000000e+00 0.000000e+00
6.645570e-01 0.000000e+00 0.000000e+00
6.962025e-01 0.000000e+00 0.000000e+00
7.278481e-01 0.000000e+00 0.000000e+00
7.594937e-01 0.000000e+00 0.000000e+00
7.911392e-01 0.000000e+00 0.000000e+00
8.227848e-01 0.000000e+00 0.000000e+00
8.544304e-01 0.000000e+00 0.000000e+00
8.860759e-01 0.000000e+00 0.000000e+00
9.177215e-01 0.000000e+00 0.000000e+00
9.493671e-01 0.000000e+00 0.000000e+00
9.810127e-01 0.000000e+00 0.000000e+00
1.012658e+00 0.000000e+00 0.000000e+00
1.044304e+00 0.000000e+00 0.000000e+00
1.075949e+00 0.000000e+00 0.000000e+00
1.107595e+00 0.000000e+00 0.000000e+00
1.139241e+00 0.000000e+00 0.000000e+00
1.170886e+00 0.000000e+00 0.000000e+00
1.202532e+00 0.000000e+00 0.000000e+00
1.234177e+00 0.000000e+00 0.000000e+00
1.265823e+00 0.000000e+00 0.000000e+00
1.297468e+00 0.000000e+00 0.000000e+00
1.329114e+00 0.000000e+00 0.000000e+00
1.360759e+00 0.000000e+00 0.000000e+00
1.392405e+00 0.000000e+00 0.000000e+00
1.424051e+00 0.000000e+00 0.000000e+00
1.455696e+00 0.000000e+00 0.000000e+00
1.487342e+00 0.000000e+00 0.000000e+00
1.518987e+00 0.000000e+00 0.000000e+00
1.550633e+00 0.000000e+00 0.000000e+00
1.582278e+00 0.000000e+00 0.000000e+00
1.613924e+00 0.000000e+00 0.000000e+00
1.645570e+00 0.000000e+00 0.000000e+00
1.677215e+00 0.000000e+00 0.000000e+00
1.708861e+00 0.000000e+00 0.000000e+00
1.740506e+00 0.000000e+00 0.000000e+00
1.772152e+00 0.000000e+00 0.000000e+00
1.803797e+00 0.000000e+00 0.000000e+00
1.835443e+00 0.000000e+00 0.000000e+00
1.867089e+00 0.000000e+00 0.000000e+00
1.898734e+00 0.000000e+00 0.000000e+00
1.930380e+00 0.000000e+00 0.000000e+00
1.962025e+00 0.000000e+00 0.000000e+00
1.993671e+00 0.000000e+00 0.000000e+00
2.025316e+00 0.000000e+00 0.000000e+00
2.056962e+00 0.000000e+00 0.000000e+00
2.088608e+00 0.000000e+00 0.000000e+00
2.120253e+00 0.000000e+00 0.000000e+00
2.151899e+00 0.000000e+00 0.000000e+00
2.183544e+00 0.000000e+00 0.000000e+00
2.215190e+00 0.000000e+00 0.000000e+00
2.246835e+00 0.000000e+00 0.000000e+00
2.278481e+00 0.000000e+00 0.000000e+00
2.310127e+00 0.000000e+00 0.000000e+00
2.341772e+00 0.000000e+00 0.000000e+00
2.373418e+00 0.000000e+00 0.000000e+00
2.405063e+00 0.000000e+00 0.000000e+00
2.436709e+00 0.000000e+00 0.000000e+00
2.468354e+00 0.000000e+00 0.000000e+00
2.500000e+00 0.000000e+00 0.000000e+00
2.531646e+00 0.000000e+00 0.000000e+00
2.563291e+00 0.000000e+00 0.000000e+00
2.594937e+00 0.000000e+00 0.000000e+00
2.626582e+00 0.000000e+00 0.000000e+00
2.658228e+00 0.000000e+00 0.000000e+00
2.689873e+00 0.000000e+00 0.000000e+00
2.721519e+00 0.000000e+00 0.000000e+00
2.753165e+00 0.000000e+00 0.000000e+00
2.784810e+00 0.000000e+00 0.000000e+00
2.816456e+00 0.000000e+00 0.000000e+00
2.848101e+00 0.000000e+00 0.000000e+00
2.879747e+00 0.000000e+00 0.000000e+00
2.911392e+00 0.000000e+00 0.000000e+00
2.943038e+00 0.000000e+00 0.000000e+00
2.974684e+00 0.000000e+00 0.000000e+00
3.006329e+00 0.000000e+00 0.000000e+00
3.037975e+00 0.000000e+00 0.000000e+00
3.069620e+00 0.000000e+00 0.000000e+00
3.101266e+00 0.000000e+00 0.000000e+00
3.132911e+00 0.000000e+00 0.000000e+00
3.164557e+00 0.000000e+00 0.000000e+00
3.196203e+00 0.000000e+00 0.000000e+00
3.227848e+00 0.000000e+00 0.000000e+00
3.259494e+00 0.000000e+00 0.000000e+00
3.291139e+00 0.000000e+00 0.000000e+00
3.322785e+00 0.000000e+00 0.000000e+00
3.354430e+00 0.000000e+00 0.000000e+00
3.386076e+00 0.000000e+00 0.000000e+00
3.417722e+00 0.000000e+00 0.000000e+00
3.449367e+00 0.000000e+00 0.000000e+00
3.481013e+00 0.000000e+00 0.000000e+00
3.512658e+00 0.000000e+00 0.000000e+00
3.544304e+00 0.000000e+00 0.000000e+00
3.575949e+00 0.000000e+00 0.000000e+00
3.607595e+00 0.000000e+00 0.000000e+00
3.639241e+00 0.000000e+00 0.000000e+00
3.670886e+00 0.000000e+00 0.000000e+00
3.702532e+00 0.000000e+00 0.000000e+00
3.734177e+00 0.000000e+00 0.000000e+00
3.765823e+00 0.000000e+00 0.000000e+00
3.797468e+00 0.000000e+00 0.000000e+00
3.829114e+00 0.000000e+00 0.000000e+00
3.860759e+00 0.000000e+00 0.000000e+00
3.892405e+00 0.000000e+00 0.000000e+00
3.924051e+00 0.000000e+00 0.000000e+00
3.955696e+00 0.000000e+00 0.000000e+00
3.987342e+00 0.000000e+00 0.000000e+00
4.018987e+00 0.000000e+00 0.000000e+00
4.050633e+00 0.000000e+00 0.000000e+00
4.082278e+00 0.000000e+00 0.000000e+00
4.113924e+00 0.000000e+00 0.000000e+00
4.145570e+00 0.000000e+00 0.000000e+00
4.177215e+00 0.000000e+00 0.000000e+00
4.208861e+00 0.000000e+00 0.000000e+00
4.240506e+00 0.000000e+00 0.000000e+00
4.272152e+00 0.000000e+00 0.000000e+00
4.303797e+00 0.000000e+00 0.000000e+00
4.335443e+00 0.000000e+00 0.000000e+00
4.367089e+00 0.000000e+00 0.000000e+00
4.398734e+00 0.000000e+00 0.000000e+00
4.430380e+00 0.000000e+00 0.000000e+00
4.462025e+00 0.000000e+00 0.000000e+00
4.493671e+00 0.000000e+00 0.000000e+00
4.525316e+00 0.000000e+00 0.000000e+00
4.556962e+00 0.000000e+00 0.000000e+00
4.588608e+00 0.000000e+00 0.000000e+00
4.620253e+00 0.000000e+00 0.000000e+00
4.651899e+00 0.000000e+00 0.000000e+00
4.683544e+00 0.000000e+00 0.000000e+00
4.715190e+00 0.000000e+00 0.000000e+00
4.746835e+00 0.000000e+00 0.000000e+00
4.778481e+00 0.000000e+00 0.000000e+00
4.810127e+00 0.000000e+00 0.000000e+00
4.841772e+00 0.000000e+00 0.000000e+00
4.873418e+00 0.000000e+00 0.000000e+00
4.905063e+00 0.000000e+00 0.000000e+00
4.936709e+00 0.000000e+00 0.000000e+00
4.968354e+00 0.000000e+00 0.000000e+00
5.000000e+00 0.000000e+00 0.000000e+00
0.000000e+00 3.333333e-02 0.000000e+00
3.164557e-02 3.333333e-02 0.000000e+00
6.329114e-02 3.333333e-02 0.000000e+00
9.493671e-02 3.333333e-02 0.000000e+00
1.265823e-01 3.333333e-02 0.000000e+00
1.582278e-01 3.333333e-02 0.000000e+00
1.898734e-01 3.333333e-02 0.000000e+00
2.215190e-01 3.333333e-02 0.000000e+00
2.531646e-01 3.333333e-02 0.000000e+00
2.848101e-01 3.333333e-02 0.000000e+00
3.164557e-01 3.333333e-02 0.000000e+00
3.481013e-01 3.333333e-02 0.000000e+00
3.797468e-01 3.333333e-02 0.000000e+00
4.113924e-01 3.333333e-02 0.000000e+00
4.430380e-01 3.333333e-02 0.000000e+00
4.746835e-01 3.333333e-02 0.000000e+00
5.063291e-01 3.333333e-02 0.000000e+00
5.379747e-01 3.333333e-02 0.000000e+00
5.696203e-01 3.333333e-02 0.000000e+00
6.012658e-01 3.333333e-02 0.000000e+00
6.329114e-01 3.333333e-02 0.000000e+00
6.645570e-01 3.333333e-02 0.000000e+00
6.962025e-01 3.333333e-02 0.000000e+00
7.278481e-01 3.333333e-02 0.000000e+00
7.594937e-01 3.333333e-02 0.000000e+00
7.911392e-01 3.333333e-02 0.000000e+00
8.227848e-01 3.333333e-02 0.000000e+00
8.544304e-01 3.333333e-02 0.000000e+00
8.860759e-01 3.333333e-02 0.000000e+00
9.177215e-01 3.333333e-02 0.000000e+00
9.493671e-01 3.333333e-02 0.000000e+00
9.810127e-01 3.333333e-02 0.000000e+00
1.012658e+00 3.333333e-02 0.000000e+00
1.044304e+00 3.333333e-02 0.000000e+00
1.075949e+00 3.333333e-02 0.000000e+00
1.107595e+00 3.333333e-02 0.000000e+00
1.139241e+00 3.333333e-02 0.000000e+00
1.170886e+00 3.333333e-02 0.000000e+00
1.202532e+00 3.333333e-02 0.000000e+00
1.234177e+00 3.333333e-02 0.000000e+00
1.265823e+00 3.333333e-02 0.000000e+00
1.297468e+00 3.333333e-02 0.000000e+00
1.329114e+00 3.333333e-02 0.000000e+00
1.360759e+00 3.333333e-02 0.000000e+00
1.392405e+00 3.333333e-02 0.000000e+00
1.424051e+00 3.333333e-02 0.000000e+00
1.455696e+00 3.333333e-02 0.000000e+00
1.487342e+00 3.333333e-02 0.000000e+00
1.518987e+00 3.333333e-02 0.000000e+00
1.550633e+00 3.333333e-02 0.000000e+00
1.582278e+00 3.333333e-02 0.000000e+00
1.613924e+00 3.333333e-02 0.000000e+00
1.645570e+00 3.333333e-02 0.000000e+00
1.677215e+00 3.333333e-02 0.000000e+00
1.708861e+00 3.333333e-02 0.000000e+00
1.740506e+00 3.333333e-02 0.000000e+00
1.772152e+00 3.333333e-02 0.000000e+00
1.803797e+00 3.333333e-02 0.000000e+00
1.835443e+00 3.333333e-02 0.000000e+00
1.867089e+00 3.333333e-02 0.000000e+00
1.898734e+00 3.333333e-02 0.000000e+00
1.930380e+00 3.333333e-02 0.000000e+00
1.962025e+00 3.333333e-02 0.000000e+00
1.993671e+00 3.333333e-02 0.000000e+00
2.025316e+00 3.333333e-02 0.000000e+00
2.056962e+00 3.333333e-02 0.000000e+00
2.088608e+00 3.333333e-02 0.000000e+00
2.120253e+00 3.333333e-02 0.000000e+00
2.151899e+00 3.333333e-02 0.000000e+00
2.183544e+00 3.333333e-02 0.000000e+00
2.215190e+00 3.333333e-02 0.000000e+00
2.246835e+00 3.333333e-02 0.000000e+00
2.278481e+00 3.333333e-02 0.000000e+00
2.310127e+00 3.333333e-02 0.000000e+00
2.341772e+00 3.333333e-02 0.000000e+00
2.373418e+00 3.333333e-02 0.000000e+00
2.405063e+00 3.333333e-02 0.000000e+00
2.436709e+00 3.333333e-02 0.000000e+00
2.468354e+00 3.333333e-02 0.000000e+00
2.500000e+00 3.333333e-02 0.000000e+00
2.531646e+00 3.333333e-02 0.000000e+00
2.563291e+00 3.333333e-02 0.000000e+00
2.594937e+00 3.333333e-02 0.000000e+00
2.626582e+00 3.333333e-02 0.000000e+00
2.658228e+00 3.333333e-02 0.000000e+00
2.689873e+00 3.333333e-02 0.000000e+00
2.721519e+00 3.333333e-02 0.000000e+00
2.753165e+00 3.333333e-02 0.000000e+00
2.784810e+00 3.333333e-02 0.000000e+00
2.816456e+00 3.333333e-02 0.000000e+00
2.848101e+00 3.333333e-02 0.000000e+00
2.879747e+00 3.333333e-02 0.000000e+00
[...]
<PointData>
<DataArray Name="Velocity" type="Float64" format="ascii" NumberOfComponents="3">
0.000000e+00 0.000000e+00 0
0.000000e+00 0.000000e+00 0
0.000000e+00 0.000000e+00 0
0.000000e+00 0.000000e+00 0
0.000000e+00 0.000000e+00 0
0.000000e+00 0.000000e+00 0
0.000000e+00 0.000000e+00 0
0.000000e+00 0.000000e+00 0
0.000000e+00 0.000000e+00 0
0.000000e+00 0.000000e+00 0
0.000000e+00 0.000000e+00 0
0.000000e+00 0.000000e+00 0
0.000000e+00 0.000000e+00 0
0.000000e+00 0.000000e+00 0
0.000000e+00 0.000000e+00 0
0.000000e+00 0.000000e+00 0
0.000000e+00 0.000000e+00 0
0.000000e+00 0.000000e+00 0
0.000000e+00 0.000000e+00 0
2.764732e-17 0.000000e+00 0
0.000000e+00 0.000000e+00 0
0.000000e+00 0.000000e+00 0
0.000000e+00 0.000000e+00 0
2.829578e-17 0.000000e+00 0
0.000000e+00 0.000000e+00 0
0.000000e+00 0.000000e+00 0
0.000000e+00 0.000000e+00 0
2.893050e-17 0.000000e+00 0
0.000000e+00 0.000000e+00 0
0.000000e+00 0.000000e+00 0
0.000000e+00 0.000000e+00 0
2.955014e-17 0.000000e+00 0
0.000000e+00 0.000000e+00 0
0.000000e+00 0.000000e+00 0
0.000000e+00 0.000000e+00 0
0.000000e+00 0.000000e+00 0
0.000000e+00 0.000000e+00 0
0.000000e+00 0.000000e+00 0
-4.982833e-17 0.000000e+00 0
0.000000e+00 0.000000e+00 0
0.000000e+00 0.000000e+00 0
0.000000e+00 0.000000e+00 0
0.000000e+00 0.000000e+00 0
0.000000e+00 0.000000e+00 0
0.000000e+00 0.000000e+00 0
0.000000e+00 0.000000e+00 0
-4.755114e-17 0.000000e+00 0
0.000000e+00 0.000000e+00 0
0.000000e+00 0.000000e+00 0
0.000000e+00 0.000000e+00 0
0.000000e+00 0.000000e+00 0
0.000000e+00 0.000000e+00 0
0.000000e+00 0.000000e+00 0
0.000000e+00 0.000000e+00 0
-4.539178e-17 0.000000e+00 0
0.000000e+00 0.000000e+00 0
0.000000e+00 0.000000e+00 0
0.000000e+00 0.000000e+00 0
0.000000e+00 0.000000e+00 0
0.000000e+00 0.000000e+00 0
0.000000e+00 0.000000e+00 0
0.000000e+00 0.000000e+00 0
-4.334316e-17 0.000000e+00 0
0.000000e+00 0.000000e+00 0
0.000000e+00 0.000000e+00 0
0.000000e+00 0.000000e+00 0
0.000000e+00 0.000000e+00 0
0.000000e+00 0.000000e+00 0
0.000000e+00 0.000000e+00 0
0.000000e+00 0.000000e+00 0
0.000000e+00 0.000000e+00 0
0.000000e+00 0.000000e+00 0
0.000000e+00 0.000000e+00 0
0.000000e+00 0.000000e+00 0
0.000000e+00 0.000000e+00 0
0.000000e+00 0.000000e+00 0
0.000000e+00 0.000000e+00 0
0.000000e+00 0.000000e+00 0
0.000000e+00 0.000000e+00 0
0.000000e+00 0.000000e+00 0
0.000000e+00 0.000000e+00 0
0.000000e+00 0.000000e+00 0
0.000000e+00 0.000000e+00 0
0.000000e+00 0.000000e+00 0
0.000000e+00 0.000000e+00 0
0.000000e+00 0.000000e+00 0
0.000000e+00 0.000000e+00 0
0.000000e+00 0.000000e+00 0
0.000000e+00 0.000000e+00 0
0.000000e+00 0.000000e+00 0
0.000000e+00 0.000000e+00 0
0.000000e+00 0.000000e+00 0
0.000000e+00 0.000000e+00 0
0.000000e+00 0.000000e+00 0
0.000000e+00 0.000000e+00 0
0.000000e+00 0.000000e+00 0
0.000000e+00 0.000000e+00 0
0.000000e+00 0.000000e+00 0
0.000000e+00 0.000000e+00 0
0.000000e+00 0.000000e+00 0
0.000000e+00 0.000000e+00 0
0.000000e+00 0.000000e+00 0
0.000000e+00 0.000000e+00 0
0.000000e+00 0.000000e+00 0
0.000000e+00 0.000000e+00 0
0.000000e+00 0.000000e+00 0
0.000000e+00 0.000000e+00 0
0.000000e+00 0.000000e+00 0
0.000000e+00 0.000000e+00 0
0.000000e+00 0.000000e+00 0
0.000000e+00 0.000000e+00 0
0.000000e+00 0.000000e+00 0
0.000000e+00 0.000000e+00 0
0.000000e+00 0.000000e+00 0
0.000000e+00 0.000000e+00 0
0.000000e+00 0.000000e+00 0
0.000000e+00 0.000000e+00 0
0.000000e+00 0.000000e+00 0
0.000000e+00 0.000000e+00 0
0.000000e+00 0.000000e+00 0
0.000000e+00 0.000000e+00 0
0.000000e+00 0.000000e+00 0
0.000000e+00 0.000000e+00 0
0.000000e+00 0.000000e+00 0
0.000000e+00 0.000000e+00 0
0.000000e+00 0.000000e+00 0
0.000000e+00 0.000000e+00 0
0.000000e+00 0.000000e+00 0
0.000000e+00 0.000000e+00 0
0.000000e+00 0.000000e+00 0
0.000000e+00 0.000000e+00 0
0.000000e+00 0.000000e+00 0
0.000000e+00 0.000000e+00 0
0.000000e+00 0.000000e+00 0
0.000000e+00 0.000000e+00 0
0.000000e+00 0.000000e+00 0
0.000000e+00 0.000000e+00 0
0.000000e+00 0.000000e+00 0
0.000000e+00 0.000000e+00 0
0.000000e+00 0.000000e+00 0
0.000000e+00 0.000000e+00 0
0.000000e+00 0.000000e+00 0
0.000000e+00 0.000000e+00 0
0.000000e+00 0.000000e+00 0
0.000000e+00 0.000000e+00 0
0.000000e+00 0.000000e+00 0
0.000000e+00 0.000000e+00 0
0.000000e+00 0.000000e+00 0
0.000000e+00 0.000000e+00 0
0.000000e+00 0.000000e+00 0
0.000000e+00 0.000000e+00 0
0.000000e+00 0.000000e+00 0
0.000000e+00 0.000000e+00 0
0.000000e+00 0.000000e+00 0
0.000000e+00 0.000000e+00 0
0.000000e+00 0.000000e+00 0
0.000000e+00 0.000000e+00 0
0.000000e+00 0.000000e+00 0
0.000000e+00 0.000000e+00 0
3.194444e+00 0.000000e+00 0
3.194452e+00 -4.159549e-05 0
3.194470e+00 -6.264460e-05 0
3.194496e+00 -7.464388e-05 0
3.194528e+00 -8.213840e-05 0
3.194564e+00 -8.712354e-05 0
3.194603e+00 -9.057801e-05 0
3.194645e+00 -9.303574e-05 0
3.194688e+00 -9.481290e-05 0
3.194732e+00 -9.610476e-05 0
3.194778e+00 -9.703355e-05 0
3.194824e+00 -9.767745e-05 0
3.194871e+00 -9.809070e-05 0
3.194918e+00 -9.831633e-05 0
3.194966e+00 -9.839204e-05 0
3.195014e+00 -9.835050e-05 0
3.195062e+00 -9.821715e-05 0
3.195110e+00 -9.800891e-05 0
3.195158e+00 -9.773547e-05 0
3.195206e+00 -9.740318e-05 0
3.195254e+00 -9.701907e-05 0
3.195302e+00 -9.659261e-05 0
3.195350e+00 -9.613443e-05 0
3.195398e+00 -9.565329e-05 0
3.195445e+00 -9.515398e-05 0
3.195493e+00 -9.463774e-05 0
3.195540e+00 -9.410466e-05 0
3.195587e+00 -9.355618e-05 0
3.195633e+00 -9.299590e-05 0
3.195680e+00 -9.242840e-05 0
3.195726e+00 -9.185725e-05 0
3.195772e+00 -9.128398e-05 0
3.195818e+00 -9.070844e-05 0
3.195863e+00 -9.013014e-05 0
3.195908e+00 -8.954939e-05 0
3.195953e+00 -8.896754e-05 0
3.195998e+00 -8.838636e-05 0
3.196042e+00 -8.780723e-05 0
3.196086e+00 -8.723072e-05 0
3.196130e+00 -8.665674e-05 0
3.196174e+00 -8.608508e-05 0
3.196217e+00 -8.551573e-05 0
3.196260e+00 -8.494908e-05 0
3.196303e+00 -8.438562e-05 0
3.196345e+00 -8.382581e-05 0
3.196388e+00 -8.326988e-05 0
3.196430e+00 -8.271792e-05 0
3.196472e+00 -8.216994e-05 0
3.196513e+00 -8.162595e-05 0
3.196554e+00 -8.108591e-05 0
3.196595e+00 -8.054983e-05 0
3.196636e+00 -8.001772e-05 0
3.196677e+00 -7.948972e-05 0
3.196717e+00 -7.896600e-05 0
3.196757e+00 -7.844670e-05 0
3.196797e+00 -7.793179e-05 0
3.196836e+00 -7.742110e-05 0
3.196876e+00 -7.691445e-05 0
3.196915e+00 -7.641176e-05 0
3.196954e+00 -7.591315e-05 0
3.196992e+00 -7.541878e-05 0
3.197031e+00 -7.492874e-05 0
3.197069e+00 -7.444295e-05 0
3.197107e+00 -7.396125e-05 0
3.197145e+00 -7.348347e-05 0
3.197182e+00 -7.300959e-05 0
3.197219e+00 -7.253964e-05 0
3.197256e+00 -7.207371e-05 0
3.197293e+00 -7.161180e-05 0
3.197330e+00 -7.115384e-05 0
3.197367e+00 -7.069973e-05 0
3.197403e+00 -7.024938e-05 0
3.197439e+00 -6.980276e-05 0
3.197475e+00 -6.935985e-05 0
3.197510e+00 -6.892065e-05 0
3.197546e+00 -6.848515e-05 0
3.197581e+00 -6.805331e-05 0
3.197616e+00 -6.762506e-05 0
3.197651e+00 -6.720034e-05 0
3.197686e+00 -6.677909e-05 0
3.197720e+00 -6.636127e-05 0
3.197755e+00 -6.594686e-05 0
3.197789e+00 -6.553583e-05 0
3.197823e+00 -6.512815e-05 0
3.197856e+00 -6.472377e-05 0
3.197890e+00 -6.432264e-05 0
3.197923e+00 -6.392469e-05 0
3.197957e+00 -6.352989e-05 0
3.197990e+00 -6.313818e-05 0
3.198023e+00 -6.274953e-05 0
3.198055e+00 -6.236392e-05 0
3.198088e+00 -6.198131e-05 0
3.198120e+00 -6.160166e-05 0
3.198152e+00 -6.122493e-05 0
3.198184e+00 -6.085104e-05 0
3.198216e+00 -6.047994e-05 0
3.198248e+00 -6.011160e-05 0
3.198279e+00 -5.974599e-05 0
3.198311e+00 -5.938308e-05 0
3.198342e+00 -5.902285e-05 0
3.198373e+00 -5.866524e-05 0
3.198404e+00 -5.831019e-05 0
3.198435e+00 -5.795765e-05 0
3.198465e+00 -5.760757e-05 0
3.198496e+00 -5.725993e-05 0
3.198526e+00 -5.691470e-05 0
3.198556e+00 -5.657183e-05 0
3.198586e+00 -5.623129e-05 0
3.198616e+00 -5.589302e-05 0
3.198645e+00 -5.555698e-05 0
3.198675e+00 -5.522312e-05 0
3.198704e+00 -5.489138e-05 0
3.198734e+00 -5.456174e-05 0
3.198763e+00 -5.423413e-05 0
3.198792e+00 -5.390853e-05 0
3.198820e+00 -5.358486e-05 0
3.198849e+00 -5.326308e-05 0
3.198878e+00 -5.294312e-05 0
3.198906e+00 -5.262492e-05 0
3.198934e+00 -5.230839e-05 0
3.198962e+00 -5.199348e-05 0
3.198990e+00 -5.168009e-05 0
3.199018e+00 -5.136814e-05 0
3.199046e+00 -5.105754e-05 0
3.199073e+00 -5.074815e-05 0
3.199100e+00 -5.043986e-05 0
3.199128e+00 -5.013253e-05 0
3.199155e+00 -4.982598e-05 0
3.199182e+00 -4.952004e-05 0
3.199208e+00 -4.921449e-05 0
3.199235e+00 -4.890909e-05 0
3.199262e+00 -4.860355e-05 0
3.199288e+00 -4.829754e-05 0
3.199314e+00 -4.799069e-05 0
3.199340e+00 -4.768253e-05 0
3.199366e+00 -4.737252e-05 0
3.199392e+00 -4.706003e-05 0
3.199418e+00 -4.674429e-05 0
3.199443e+00 -4.642438e-05 0
3.199468e+00 -4.609915e-05 0
3.199494e+00 -4.576721e-05 0
3.199518e+00 -4.542681e-05 0
3.199543e+00 -4.507570e-05 0
3.199568e+00 -4.471101e-05 0
3.199592e+00 -4.432890e-05 0
3.199616e+00 -4.392420e-05 0
3.199640e+00 -4.348974e-05 0
3.199664e+00 -4.301525e-05 0
3.199687e+00 -4.248560e-05 0
3.199710e+00 -4.187779e-05 0
3.199732e+00 -4.115559e-05 0
3.199754e+00 -4.026003e-05 0
3.199776e+00 -3.909184e-05 0
3.199796e+00 -3.747863e-05 0
3.199815e+00 -3.511183e-05 0
3.199833e+00 -3.142498e-05 0
3.199848e+00 -2.532070e-05 0
3.199860e+00 -1.553245e-05 0
3.199860e+00 -9.583119e-06 0
6.194444e+00 0.000000e+00 0
6.194436e+00 -2.700237e-05 0
6.194424e+00 -4.702680e-05 0
6.194412e+00 -6.129140e-05 0
6.194402e+00 -7.153188e-05 0
6.194393e+00 -7.902263e-05 0
6.194386e+00 -8.461012e-05 0
6.194380e+00 -8.885127e-05 0
6.194375e+00 -9.211509e-05 0
6.194372e+00 -9.464673e-05 0
6.194369e+00 -9.661025e-05 0
6.194367e+00 -9.811964e-05 0
6.194366e+00 -9.926043e-05 0
6.194365e+00 -1.001023e-04 0
6.194365e+00 -1.007041e-04 0
6.194365e+00 -1.011136e-04 0
6.194365e+00 -1.013662e-04 0
6.194366e+00 -1.014867e-04 0
6.194367e+00 -1.014918e-04 0
6.194368e+00 -1.013962e-04 0
6.194369e+00 -1.012151e-04 0
6.194371e+00 -1.009650e-04 0
6.194372e+00 -1.006607e-04 0
6.194374e+00 -1.003130e-04 0
6.194376e+00 -9.992789e-05 0
6.194378e+00 -9.950830e-05 0
6.194380e+00 -9.905738e-05 0
6.194382e+00 -9.858011e-05 0
6.194384e+00 -9.808287e-05 0
6.194386e+00 -9.757154e-05 0
6.194388e+00 -9.704987e-05 0
6.194390e+00 -9.651930e-05 0
6.194392e+00 -9.598023e-05 0
6.194395e+00 -9.543344e-05 0
6.194397e+00 -9.488074e-05 0
6.194399e+00 -9.432459e-05 0
6.194401e+00 -9.376718e-05 0
6.194404e+00 -9.320980e-05 0
6.194406e+00 -9.265289e-05 0
6.194408e+00 -9.209653e-05 0
6.194411e+00 -9.154095e-05 0
6.194413e+00 -9.098677e-05 0
6.194415e+00 -9.043476e-05 0
6.194418e+00 -8.988561e-05 0
6.194420e+00 -8.933974e-05 0
6.194422e+00 -8.879735e-05 0
6.194425e+00 -8.825856e-05 0
6.194427e+00 -8.772353e-05 0
6.194429e+00 -8.719240e-05 0
6.194432e+00 -8.666530e-05 0
6.194434e+00 -8.614230e-05 0
6.194436e+00 -8.562348e-05 0
6.194439e+00 -8.510900e-05 0
6.194441e+00 -8.459902e-05 0
6.194443e+00 -8.409368e-05 0
6.194446e+00 -8.359293e-05 0
6.194448e+00 -8.309664e-05 0
6.194451e+00 -8.260470e-05 0
6.194453e+00 -8.211712e-05 0
6.194456e+00 -8.163402e-05 0
6.194458e+00 -8.115553e-05 0
6.194460e+00 -8.068169e-05 0
6.194463e+00 -8.021238e-05 0
6.194465e+00 -7.974746e-05 0
6.194468e+00 -7.928683e-05 0
6.194470e+00 -7.883047e-05 0
6.194473e+00 -7.837844e-05 0
6.194475e+00 -7.793076e-05 0
6.194478e+00 -7.748742e-05 0
6.194480e+00 -7.704833e-05 0
6.194483e+00 -7.661338e-05 0
6.194485e+00 -7.618251e-05 0
6.194488e+00 -7.575569e-05 0
6.194491e+00 -7.533289e-05 0
6.194493e+00 -7.491409e-05 0
6.194496e+00 -7.449926e-05 0
6.194498e+00 -7.408835e-05 0
6.194501e+00 -7.368127e-05 0
6.194504e+00 -7.327796e-05 0
6.194506e+00 -7.287836e-05 0
6.194509e+00 -7.248241e-05 0
6.194512e+00 -7.209009e-05 0
6.194514e+00 -7.170133e-05 0
6.194517e+00 -7.131610e-05 0
6.194520e+00 -7.093432e-05 0
6.194523e+00 -7.055593e-05 0
6.194526e+00 -7.018085e-05 0
6.194528e+00 -6.980903e-05 0
6.194531e+00 -6.944040e-05 0
6.194534e+00 -6.907492e-05 0
6.194537e+00 -6.871255e-05 0
6.194540e+00 -6.835323e-05 0
6.194543e+00 -6.799691e-05 0
6.194545e+00 -6.764350e-05 0
6.194548e+00 -6.729293e-05 0
6.194551e+00 -6.694515e-05 0
6.194554e+00 -6.660009e-05 0
6.194557e+00 -6.625772e-05 0
6.194560e+00 -6.591800e-05 0
6.194563e+00 -6.558087e-05 0
6.194566e+00 -6.524624e-05 0
6.194569e+00 -6.491405e-05 0
6.194572e+00 -6.458424e-05 0
6.194575e+00 -6.425675e-05 0
6.194579e+00 -6.393153e-05 0
6.194582e+00 -6.360853e-05 0
6.194585e+00 -6.328769e-05 0
6.194588e+00 -6.296894e-05 0
6.194591e+00 -6.265222e-05 0
6.194594e+00 -6.233746e-05 0
6.194598e+00 -6.202459e-05 0
6.194601e+00 -6.171354e-05 0
6.194604e+00 -6.140425e-05 0
6.194607e+00 -6.109665e-05 0
6.194610e+00 -6.079065e-05 0
6.194614e+00 -6.048618e-05 0
6.194617e+00 -6.018314e-05 0
6.194620e+00 -5.988143e-05 0
6.194624e+00 -5.958094e-05 0
6.194627e+00 -5.928157e-05 0
6.194630e+00 -5.898319e-05 0
6.194634e+00 -5.868566e-05 0
6.194637e+00 -5.838883e-05 0
6.194640e+00 -5.809251e-05 0
6.194644e+00 -5.779652e-05 0
6.194647e+00 -5.750063e-05 0
6.194651e+00 -5.720458e-05 0
6.194654e+00 -5.690810e-05 0
6.194658e+00 -5.661084e-05 0
6.194661e+00 -5.631244e-05 0
6.194664e+00 -5.601243e-05 0
6.194668e+00 -5.571032e-05 0
6.194671e+00 -5.540550e-05 0
6.194675e+00 -5.509726e-05 0
6.194678e+00 -5.478479e-05 0
6.194682e+00 -5.446709e-05 0
6.194685e+00 -5.414301e-05 0
6.194688e+00 -5.381113e-05 0
6.194692e+00 -5.346977e-05 0
6.194695e+00 -5.311687e-05 0
6.194699e+00 -5.274989e-05 0
6.194702e+00 -5.236565e-05 0
6.194705e+00 -5.196018e-05 0
6.194708e+00 -5.152835e-05 0
6.194711e+00 -5.106350e-05 0
6.194715e+00 -5.055678e-05 0
6.194718e+00 -4.999622e-05 0
6.194720e+00 -4.936528e-05 0
6.194723e+00 -4.864058e-05 0
6.194726e+00 -4.778849e-05 0
6.194728e+00 -4.675958e-05 0
6.194730e+00 -4.548018e-05 0
6.194732e+00 -4.383944e-05 0
6.194734e+00 -4.167056e-05 0
6.194735e+00 -3.872735e-05 0
6.194736e+00 -3.466535e-05 0
6.194737e+00 -2.907970e-05 0
6.194740e+00 -2.158363e-05 0
6.194740e+00 -1.731291e-05 0
8.972222e+00 0.000000e+00 0
8.972219e+00 -2.011714e-05 0
8.972212e+00 -3.725700e-05 0
8.972203e+00 -5.100506e-05 0
8.972194e+00 -6.179979e-05 0
8.972186e+00 -7.023786e-05 0
8.972178e+00 -7.685853e-05 0
8.972171e+00 -8.208918e-05 0
8.972165e+00 -8.624826e-05 0
8.972159e+00 -8.956541e-05 0
8.972154e+00 -9.220620e-05 0
8.972149e+00 -9.429483e-05 0
8.972145e+00 -9.593074e-05 0
8.972141e+00 -9.719738e-05 0
8.972137e+00 -9.816457e-05 0
8.972134e+00 -9.888776e-05 0
8.972130e+00 -9.940792e-05 0
8.972127e+00 -9.975412e-05 0
8.972125e+00 -9.994869e-05 0
8.972122e+00 -1.000124e-04 0
8.972120e+00 -9.996678e-05 0
8.972117e+00 -9.983304e-05 0
8.972115e+00 -9.962868e-05 0
8.972113e+00 -9.936539e-05 0
8.972111e+00 -9.904978e-05 0
8.972108e+00 -9.868653e-05 0
8.972106e+00 -9.828149e-05 0
8.972104e+00 -9.784250e-05 0
8.972103e+00 -9.737791e-05 0
8.972101e+00 -9.689427e-05 0
8.972099e+00 -9.639515e-05 0
8.972097e+00 -9.588197e-05 0
8.972095e+00 -9.535569e-05 0
8.972093e+00 -9.481825e-05 0
8.972091e+00 -9.427268e-05 0
8.972090e+00 -9.372216e-05 0
8.972088e+00 -9.316907e-05 0
8.972086e+00 -9.261461e-05 0
8.972084e+00 -9.205914e-05 0
8.972082e+00 -9.150294e-05 0
8.972081e+00 -9.094663e-05 0
8.972079e+00 -9.039124e-05 0
8.972077e+00 -8.983784e-05 0
8.972075e+00 -8.928721e-05 0
8.972074e+00 -8.873977e-05 0
8.972072e+00 -8.819573e-05 0
8.972070e+00 -8.765525e-05 0
8.972068e+00 -8.711857e-05 0
8.972067e+00 -8.658595e-05 0
8.972065e+00 -8.605757e-05 0
8.972063e+00 -8.553360e-05 0
8.972061e+00 -8.501415e-05 0
8.972060e+00 -8.449943e-05 0
8.972058e+00 -8.398961e-05 0
8.972056e+00 -8.348477e-05 0
8.972055e+00 -8.298487e-05 0
8.972053e+00 -8.248979e-05 0
8.972051e+00 -8.199948e-05 0
8.972050e+00 -8.151400e-05 0
8.972048e+00 -8.103353e-05 0
8.972046e+00 -8.055814e-05 0
8.972045e+00 -8.008783e-05 0
8.972043e+00 -7.962244e-05 0
8.972041e+00 -7.916185e-05 0
8.972040e+00 -7.870599e-05 0
8.972038e+00 -7.825489e-05 0
8.972037e+00 -7.780860e-05 0
8.972035e+00 -7.736710e-05 0
8.972034e+00 -7.693034e-05 0
8.972032e+00 -7.649821e-05 0
8.972030e+00 -7.607062e-05 0
8.972029e+00 -7.564752e-05 0
8.972027e+00 -7.522886e-05 0
8.972026e+00 -7.481463e-05 0
8.972024e+00 -7.440478e-05 0
8.972023e+00 -7.399926e-05 0
8.972021e+00 -7.359798e-05 0
8.972020e+00 -7.320089e-05 0
8.972019e+00 -7.280788e-05 0
8.972017e+00 -7.241891e-05 0
8.972016e+00 -7.203391e-05 0
8.972014e+00 -7.165284e-05 0
8.972013e+00 -7.127562e-05 0
8.972012e+00 -7.090219e-05 0
8.972010e+00 -7.053246e-05 0
8.972009e+00 -7.016635e-05 0
8.972008e+00 -6.980379e-05 0
8.972006e+00 -6.944469e-05 0
8.972005e+00 -6.908900e-05 0
8.972004e+00 -6.873664e-05 0
8.972002e+00 -6.838756e-05 0
8.972001e+00 -6.804169e-05 0
8.972000e+00 -6.769895e-05 0
8.971999e+00 -6.735923e-05 0
8.971998e+00 -6.702247e-05 0
8.971996e+00 -6.668858e-05 0
8.971995e+00 -6.635751e-05 0
8.971994e+00 -6.602920e-05 0
8.971993e+00 -6.570359e-05 0
8.971992e+00 -6.538059e-05 0
8.971991e+00 -6.506010e-05 0
8.971990e+00 -6.474205e-05 0
8.971989e+00 -6.442637e-05 0
8.971988e+00 -6.411299e-05 0
8.971987e+00 -6.380184e-05 0
8.971986e+00 -6.349285e-05 0
8.971985e+00 -6.318594e-05 0
8.971984e+00 -6.288102e-05 0
8.971983e+00 -6.257803e-05 0
8.971982e+00 -6.227685e-05 0
8.971981e+00 -6.197743e-05 0
8.971980e+00 -6.167965e-05 0
8.971979e+00 -6.138345e-05 0
8.971978e+00 -6.108873e-05 0
8.971977e+00 -6.079538e-05 0
8.971976e+00 -6.050329e-05 0
8.971976e+00 -6.021233e-05 0
8.971975e+00 -5.992238e-05 0
8.971974e+00 -5.963330e-05 0
8.971973e+00 -5.934495e-05 0
8.971972e+00 -5.905714e-05 0
8.971972e+00 -5.876970e-05 0
8.971971e+00 -5.848241e-05 0
8.971970e+00 -5.819504e-05 0
8.971969e+00 -5.790732e-05 0
8.971969e+00 -5.761896e-05 0
8.971968e+00 -5.732960e-05 0
8.971967e+00 -5.703886e-05 0
8.971967e+00 -5.674628e-05 0
8.971966e+00 -5.645135e-05 0
8.971965e+00 -5.615346e-05 0
8.971965e+00 -5.585191e-05 0
8.971964e+00 -5.554588e-05 0
8.971963e+00 -5.523443e-05 0
8.971963e+00 -5.491641e-05 0
8.971962e+00 -5.459051e-05 0
8.971961e+00 -5.425513e-05 0
8.971961e+00 -5.390841e-05 0
8.971960e+00 -5.354806e-05 0
8.971959e+00 -5.317134e-05 0
8.971958e+00 -5.277489e-05 0
8.971958e+00 -5.235459e-05 0
8.971957e+00 -5.190529e-05 0
8.971956e+00 -5.142049e-05 0
8.971955e+00 -5.089190e-05 0
8.971954e+00 -5.030881e-05 0
8.971953e+00 -4.965715e-05 0
8.971952e+00 -4.891822e-05 0
8.971951e+00 -4.806691e-05 0
8.971950e+00 -4.706912e-05 0
8.971949e+00 -4.587843e-05 0
8.971947e+00 -4.443191e-05 0
8.971946e+00 -4.264586e-05 0
8.971944e+00 -4.041376e-05 0
8.971943e+00 -3.761319e-05 0
8.971942e+00 -3.413605e-05 0
8.971942e+00 -2.999482e-05 0
8.971943e+00 -2.518282e-05 0
8.971943e+00 -2.259316e-05 0
1.152778e+01 0.000000e+00 0
1.152778e+01 -1.603866e-05 0
1.152777e+01 -3.057298e-05 0
1.152776e+01 -4.303604e-05 0
1.152776e+01 -5.341867e-05 0
1.152775e+01 -6.194204e-05 0
1.152774e+01 -6.890206e-05 0
1.152774e+01 -7.458147e-05 0
1.152773e+01 -7.921613e-05 0
1.152772e+01 -8.299140e-05 0
1.152771e+01 -8.605273e-05 0
1.152771e+01 -8.851891e-05 0
1.152770e+01 -9.049131e-05 0
1.152770e+01 -9.205732e-05 0
1.152769e+01 -9.328982e-05 0
1.152769e+01 -9.424587e-05 0
1.152768e+01 -9.496762e-05 0
1.152768e+01 -9.548643e-05 0
1.152767e+01 -9.582862e-05 0
1.152767e+01 -9.601995e-05 0
1.152766e+01 -9.608649e-05 0
1.152766e+01 -9.605209e-05 0
1.152765e+01 -9.593501e-05 0
1.152765e+01 -9.574691e-05 0
1.152764e+01 -9.549505e-05 0
1.152764e+01 -9.518603e-05 0
1.152764e+01 -9.482830e-05 0
1.152763e+01 -9.443186e-05 0
1.152763e+01 -9.400593e-05 0
1.152762e+01 -9.355687e-05 0
1.152762e+01 -9.308790e-05 0
1.152762e+01 -9.260065e-05 0
1.152761e+01 -9.209702e-05 0
1.152761e+01 -9.158012e-05 0
1.152760e+01 -9.105375e-05 0
1.152760e+01 -9.052135e-05 0
1.152760e+01 -8.998514e-05 0
1.152759e+01 -8.944616e-05 0
1.152759e+01 -8.890494e-05 0
1.152758e+01 -8.836212e-05 0
1.152758e+01 -8.781872e-05 0
1.152758e+01 -8.727602e-05 0
1.152757e+01 -8.673514e-05 0
1.152757e+01 -8.619683e-05 0
1.152757e+01 -8.566150e-05 0
1.152756e+01 -8.512943e-05 0
1.152756e+01 -8.460089e-05 0
1.152755e+01 -8.407622e-05 0
1.152755e+01 -8.355571e-05 0
1.152755e+01 -8.303958e-05 0
1.152754e+01 -8.252797e-05 0
1.152754e+01 -8.202110e-05 0
1.152754e+01 -8.151919e-05 0
1.152753e+01 -8.102245e-05 0
1.152753e+01 -8.053094e-05 0