<?xml version="1.0"?>
<VTKFile type="StructuredGrid">
<StructuredGrid WholeExtent="0 18 0 2 0 0 ">
<Piece Extent="0 18 0 2 0 0 ">
<Points>
<DataArray type="Float64" format="ascii" NumberOfComponents="3">
0.000000e+00 0.000000e+00 0.000000e+00
2.777778e-01 0.000000e+00 0.000000e+00
5.555556e-01 0.000000e+00 0.000000e+00
8.333333e-01 0.000000e+00 0.000000e+00
1.111111e+00 0.000000e+00 0.000000e+00
1.388889e+00 0.000000e+00 0.000000e+00
1.666667e+00 0.000000e+00 0.000000e+00
1.944444e+00 0.000000e+00 0.000000e+00
2.222222e+00 0.000000e+00 0.000000e+00
2.500000e+00 0.000000e+00 0.000000e+00
2.777778e+00 0.000000e+00 0.000000e+00
3.055556e+00 0.000000e+00 0.000000e+00
3.333333e+00 0.000000e+00 0.000000e+00
3.611111e+00 0.000000e+00 0.000000e+00
3.888889e+00 0.000000e+00 0.000000e+00
4.166667e+00 0.000000e+00 0.000000e+00
4.444444e+00 0.000000e+00 0.000000e+00
4.722222e+00 0.000000e+00 0.000000e+00
5.000000e+00 0.000000e+00 0.000000e+00
0.000000e+00 5.000000e-01 0.000000e+00
2.777778e-01 5.000000e-01 0.000000e+00
5.555556e-01 5.000000e-01 0.000000e+00
8.333333e-01 5.000000e-01 0.000000e+00
1.111111e+00 5.000000e-01 0.000000e+00
1.388889e+00 5.000000e-01 0.000000e+00
1.666667e+00 5.000000e-01 0.000000e+00
1.944444e+00 5.000000e-01 0.000000e+00
2.222222e+00 5.000000e-01 0.000000e+00
2.500000e+00 5.000000e-01 0.000000e+00
2.777778e+00 5.000000e-01 0.000000e+00
3.055556e+00 5.000000e-01 0.000000e+00
3.333333e+00 5.000000e-01 0.000000e+00
3.611111e+00 5.000000e-01 0.000000e+00
3.888889e+00 5.000000e-01 0.000000e+00
4.166667e+00 5.000000e-01 0.000000e+00
4.444444e+00 5.000000e-01 0.000000e+00
4.722222e+00 5.000000e-01 0.000000e+00
5.000000e+00 5.000000e-01 0.000000e+00
0.000000e+00 1.000000e+00 0.000000e+00
2.777778e-01 1.000000e+00 0.000000e+00
5.555556e-01 1.000000e+00 0.000000e+00
8.333333e-01 1.000000e+00 0.000000e+00
1.111111e+00 1.000000e+00 0.000000e+00
1.388889e+00 1.000000e+00 0.000000e+00
1.666667e+00 1.000000e+00 0.000000e+00
1.944444e+00 1.000000e+00 0.000000e+00
2.222222e+00 1.000000e+00 0.000000e+00
2.500000e+00 1.000000e+00 0.000000e+00
2.777778e+00 1.000000e+00 0.000000e+00
3.055556e+00 1.000000e+00 0.000000e+00
3.333333e+00 1.000000e+00 0.000000e+00
3.611111e+00 1.000000e+00 0.000000e+00
3.888889e+00 1.000000e+00 0.000000e+00
4.166667e+00 1.000000e+00 0.000000e+00
4.444444e+00 1.000000e+00 0.000000e+00
4.722222e+00 1.000000e+00 0.000000e+00
5.000000e+00 1.000000e+00 0.000000e+00
</DataArray>
</Points>
<PointData>
<DataArray Name="Velocity" type="Float64" format="ascii" NumberOfComponents="3">
0.000000e+00 0.000000e+00 0
0.000000e+00 0.000000e+00 0
0.000000e+00 0.000000e+00 0
0.000000e+00 0.000000e+00 0
0.000000e+00 0.000000e+00 0
0.000000e+00 0.000000e+00 0
0.000000e+00 0.000000e+00 0
-5.551114e-16 0.000000e+00 0
0.000000e+00 0.000000e+00 0
0.000000e+00 0.000000e+00 0
0.000000e+00 0.000000e+00 0
0.000000e+00 0.000000e+00 0
0.000000e+00 0.000000e+00 0
0.000000e+00 0.000000e+00 0
6.661339e-16 0.000000e+00 0
0.000000e+00 0.000000e+00 0
0.000000e+00 0.000000e+00 0
0.000000e+00 0.000000e+00 0
0.000000e+00 0.000000e+00 0
1.875000e+01 0.000000e+00 0
1.875000e+01 -7.028025e-07 0
1.875000e+01 4.901163e-07 0
1.875000e+01 1.317124e-06 0
1.875000e+01 1.028293e-06 0
1.875000e+01 -1.390241e-07 0
1.875000e+01 -1.041291e-06 0
1.875000e+01 -1.109915e-06 0
1.875000e+01 -5.657180e-07 0
1.875000e+01 7.287352e-08 0
1.875000e+01 4.342175e-07 0
1.875000e+01 4.556653e-07 0
1.875000e+01 2.740492e-07 0
1.875000e+01 5.640675e-08 0
1.875000e+01 -9.437331e-08 0
1.875000e+01 -1.547650e-07 0
1.875000e+01 -1.359892e-07 0
1.875000e+01 -6.656242e-08 0
1.875000e+01 -2.454624e-08 0
0.000000e+00 0.000000e+00 0
0.000000e+00 0.000000e+00 0
0.000000e+00 0.000000e+00 0
0.000000e+00 0.000000e+00 0
0.000000e+00 0.000000e+00 0
0.000000e+00 0.000000e+00 0
0.000000e+00 0.000000e+00 0
5.551116e-16 0.000000e+00 0
0.000000e+00 0.000000e+00 0
0.000000e+00 0.000000e+00 0
0.000000e+00 0.000000e+00 0
0.000000e+00 0.000000e+00 0
0.000000e+00 0.000000e+00 0
0.000000e+00 0.000000e+00 0
-6.661337e-16 0.000000e+00 0
0.000000e+00 0.000000e+00 0
0.000000e+00 0.000000e+00 0
0.000000e+00 0.000000e+00 0
0.000000e+00 0.000000e+00 0
</DataArray>
<DataArray Name="Pressure" type="Float64" format="ascii">
7.286645e-02 7.077769e-02 6.665341e-02 6.257138e-02 5.843040e-02 5.421494e-02 4.998218e-02 4.578369e-02 4.162775e-02 3.749013e-02 3.334464e-02 2.918260e-02 2.500953e-02 2.083473e-02 1.666424e-02 1.249788e-02 8.332591e-03 4.166744e-03 5.209125e-04 
7.291421e-02 7.081962e-02 6.664686e-02 6.250166e-02 5.835930e-02 5.419552e-02 5.001281e-02 4.582819e-02 4.165452e-02 3.749144e-02 3.333157e-02 2.916963e-02 2.500391e-02 2.083556e-02 1.666711e-02 1.249975e-02 8.333046e-03 4.166586e-03 1.474515e-17 
7.296197e-02 7.086155e-02 6.664032e-02 6.243193e-02 5.828820e-02 5.417610e-02 5.004343e-02 4.587269e-02 4.168130e-02 3.749274e-02 3.331849e-02 2.915665e-02 2.499829e-02 2.083639e-02 1.666997e-02 1.250162e-02 8.333502e-03 4.166429e-03 5.208066e-04 
</DataArray>
<DataArray Name="Stream" type="Float64" format="ascii">
0.000000e+00 0.000000e+00 0.000000e+00 0.000000e+00 0.000000e+00 0.000000e+00 0.000000e+00 0.000000e+00 0.000000e+00 0.000000e+00 0.000000e+00 0.000000e+00 0.000000e+00 0.000000e+00 0.000000e+00 0.000000e+00 0.000000e+00 0.000000e+00 0.000000e+00 
0.000000e+00 9.375000e+00 9.374999e+00 9.374999e+00 9.375000e+00 9.375000e+00 9.375000e+00 9.375000e+00 9.375000e+00 9.375000e+00 9.375000e+00 9.375000e+00 9.375000e+00 9.375000e+00 9.375000e+00 9.375000e+00 9.375000e+00 9.375000e+00 9.375000e+00 
0.000000e+00 1.875000e+01 1.875000e+01 1.875000e+01 1.875000e+01 1.875000e+01 1.875000e+01 1.875000e+01 1.875000e+01 1.875000e+01 1.875000e+01 1.875000e+01 1.875000e+01 1.875000e+01 1.875000e+01 1.875000e+01 1.875000e+01 1.875000e+01 1.875000e+01 
</DataArray>
<DataArray Name="Vorticity" type="Float64" format="ascii">
7.500000e+01 7.500000e+01 7.499999e+01 7.500000e+01 7.500000e+01 7.500000e+01 7.500000e+01 7.500000e+01 7.500000e+01 7.500000e+01 7.500000e+01 7.500000e+01 7.500000e+01 7.500000e+01 7.500000e+01 7.500000e+01 7.500000e+01 7.500000e+01 7.500000e+01 
9.331628e-06 -3.117898e-06 1.099524e-06 1.509395e-06 3.273454e-06 2.652902e-06 9.844291e-08 -2.271404e-06 -3.367886e-06 -3.130560e-06 -2.115849e-06 -9.646196e-07 -8.900812e-08 3.112578e-07 1.695356e-07 -3.278158e-07 -9.523815e-07 -1.353301e-06 -1.050785e-06 
-7.500000e+01 -7.500000e+01 -7.500000e+01 -7.500000e+01 -7.500000e+01 -7.500000e+01 -7.500000e+01 -7.500000e+01 -7.500000e+01 -7.500000e+01 -7.500000e+01 -7.500000e+01 -7.500000e+01 -7.500000e+01 -7.500000e+01 -7.500000e+01 -7.500000e+01 -7.500000e+01 -7.500000e+01 
</DataArray>
</PointData>
</Piece>
</StructuredGrid>
</VTKFile>
