<?xml version="1.0"?>
<VTKFile type="StructuredGrid">
<StructuredGrid WholeExtent="0 318 0 62 0 0 ">
<Piece Extent="0 318 0 62 0 0 ">
<Points>
<DataArray type="Float64" format="ascii" NumberOfComponents="3">
0.000000e+00 0.000000e+00 0.000000e+00
1.572327e-02 0.000000e+00 0.000000e+00
3.144654e-02 0.000000e+00 0.000000e+00
4.716981e-02 0.000000e+00 0.000000e+00
6.289308e-02 0.000000e+00 0.000000e+00
7.861635e-02 0.000000e+00 0.000000e+00
9.433962e-02 0.000000e+00 0.000000e+00
1.100629e-01 0.000000e+00 0.000000e+00
1.257862e-01 0.000000e+00 0.000000e+00
1.415094e-01 0.000000e+00 0.000000e+00
1.572327e-01 0.000000e+00 0.000000e+00
1.729560e-01 0.000000e+00 0.000000e+00
1.886792e-01 0.000000e+00 0.000000e+00
2.044025e-01 0.000000e+00 0.000000e+00
2.201258e-01 0.000000e+00 0.000000e+00
2.358491e-01 0.000000e+00 0.000000e+00
2.515723e-01 0.000000e+00 0.000000e+00
2.672956e-01 0.000000e+00 0.000000e+00
2.830189e-01 0.000000e+00 0.000000e+00
2.987421e-01 0.000000e+00 0.000000e+00
3.144654e-01 0.000000e+00 0.000000e+00
3.301887e-01 0.000000e+00 0.000000e+00
3.459119e-01 0.000000e+00 0.000000e+00
3.616352e-01 0.000000e+00 0.000000e+00
3.773585e-01 0.000000e+00 0.000000e+00
3.930818e-01 0.000000e+00 0.000000e+00
4.088050e-01 0.000000e+00 0.000000e+00
4.245283e-01 0.000000e+00 0.000000e+00
4.402516e-01 0.000000e+00 0.000000e+00
4.559748e-01 0.000000e+00 0.000000e+00
4.716981e-01 0.000000e+00 0.000000e+00
4.874214e-01 0.000000e+00 0.000000e+00
5.031447e-01 0.000000e+00 0.000000e+00
5.188679e-01 0.000000e+00 0.000000e+00
5.345912e-01 0.000000e+00 0.000000e+00
5.503145e-01 0.000000e+00 0.000000e+00
5.660377e-01 0.000000e+00 0.000000e+00
5.817610e-01 0.000000e+00 0.000000e+00
5.974843e-01 0.000000e+00 0.000000e+00
6.132075e-01 0.000000e+00 0.000000e+00
6.289308e-01 0.000000e+00 0.000000e+00
6.446541e-01 0.000000e+00 0.000000e+00
6.603774e-01 0.000000e+00 0.000000e+00
6.761006e-01 0.000000e+00 0.000000e+00
6.918239e-01 0.000000e+00 0.000000e+00
7.075472e-01 0.000000e+00 0.000000e+00
7.232704e-01 0.000000e+00 0.000000e+00
7.389937e-01 0.000000e+00 0.000000e+00
7.547170e-01 0.000000e+00 0.000000e+00
7.704403e-01 0.000000e+00 0.000000e+00
7.861635e-01 0.000000e+00 0.000000e+00
8.018868e-01 0.000000e+00 0.000000e+00
8.176101e-01 0.000000e+00 0.000000e+00
8.333333e-01 0.000000e+00 0.000000e+00
8.490566e-01 0.000000e+00 0.000000e+00
8.647799e-01 0.000000e+00 0.000000e+00
8.805031e-01 0.000000e+00 0.000000e+00
8.962264e-01 0.000000e+00 0.000000e+00
9.119497e-01 0.000000e+00 0.000000e+00
9.276730e-01 0.000000e+00 0.000000e+00
9.433962e-01 0.000000e+00 0.000000e+00
9.591195e-01 0.000000e+00 0.000000e+00
9.748428e-01 0.000000e+00 0.000000e+00
9.905660e-01 0.000000e+00 0.000000e+00
1.006289e+00 0.000000e+00 0.000000e+00
1.022013e+00 0.000000e+00 0.000000e+00
1.037736e+00 0.000000e+00 0.000000e+00
1.053459e+00 0.000000e+00 0.000000e+00
1.069182e+00 0.000000e+00 0.000000e+00
1.084906e+00 0.000000e+00 0.000000e+00
1.100629e+00 0.000000e+00 0.000000e+00
1.116352e+00 0.000000e+00 0.000000e+00
1.132075e+00 0.000000e+00 0.000000e+00
1.147799e+00 0.000000e+00 0.000000e+00
1.163522e+00 0.000000e+00 0.000000e+00
1.179245e+00 0.000000e+00 0.000000e+00
1.194969e+00 0.000000e+00 0.000000e+00
1.210692e+00 0.000000e+00 0.000000e+00
1.226415e+00 0.000000e+00 0.000000e+00
1.242138e+00 0.000000e+00 0.000000e+00
1.257862e+00 0.000000e+00 0.000000e+00
1.273585e+00 0.000000e+00 0.000000e+00
1.289308e+00 0.000000e+00 0.000000e+00
1.305031e+00 0.000000e+00 0.000000e+00
1.320755e+00 0.000000e+00 0.000000e+00
1.336478e+00 0.000000e+00 0.000000e+00
1.352201e+00 0.000000e+00 0.000000e+00
1.367925e+00 0.000000e+00 0.000000e+00
1.383648e+00 0.000000e+00 0.000000e+00
1.399371e+00 0.000000e+00 0.000000e+00
1.415094e+00 0.000000e+00 0.000000e+00
1.430818e+00 0.000000e+00 0.000000e+00
1.446541e+00 0.000000e+00 0.000000e+00
1.462264e+00 0.000000e+00 0.000000e+00
1.477987e+00 0.000000e+00 0.000000e+00
1.493711e+00 0.000000e+00 0.000000e+00
1.509434e+00 0.000000e+00 0.000000e+00
1.525157e+00 0.000000e+00 0.000000e+00
1.540881e+00 0.000000e+00 0.000000e+00
1.556604e+00 0.000000e+00 0.000000e+00
1.572327e+00 0.000000e+00 0.000000e+00
1.588050e+00 0.000000e+00 0.000000e+00
1.603774e+00 0.000000e+00 0.000000e+00
1.619497e+00 0.000000e+00 0.000000e+00
1.635220e+00 0.000000e+00 0.000000e+00
1.650943e+00 0.000000e+00 0.000000e+00
1.666667e+00 0.000000e+00 0.000000e+00
1.682390e+00 0.000000e+00 0.000000e+00
1.698113e+00 0.000000e+00 0.000000e+00
1.713836e+00 0.000000e+00 0.000000e+00
1.729560e+00 0.000000e+00 0.000000e+00
1.745283e+00 0.000000e+00 0.000000e+00
1.761006e+00 0.000000e+00 0.000000e+00
1.776730e+00 0.000000e+00 0.000000e+00
1.792453e+00 0.000000e+00 0.000000e+00
1.808176e+00 0.000000e+00 0.000000e+00
1.823899e+00 0.000000e+00 0.000000e+00
1.839623e+00 0.000000e+00 0.000000e+00
1.855346e+00 0.000000e+00 0.000000e+00
1.871069e+00 0.000000e+00 0.000000e+00
1.886792e+00 0.000000e+00 0.000000e+00
1.902516e+00 0.000000e+00 0.000000e+00
1.918239e+00 0.000000e+00 0.000000e+00
1.933962e+00 0.000000e+00 0.000000e+00
1.949686e+00 0.000000e+00 0.000000e+00
1.965409e+00 0.000000e+00 0.000000e+00
1.981132e+00 0.000000e+00 0.000000e+00
1.996855e+00 0.000000e+00 0.000000e+00
2.012579e+00 0.000000e+00 0.000000e+00
2.028302e+00 0.000000e+00 0.000000e+00
2.044025e+00 0.000000e+00 0.000000e+00
2.059748e+00 0.000000e+00 0.000000e+00
2.075472e+00 0.000000e+00 0.000000e+00
2.091195e+00 0.000000e+00 0.000000e+00
2.106918e+00 0.000000e+00 0.000000e+00
2.122642e+00 0.000000e+00 0.000000e+00
2.138365e+00 0.000000e+00 0.000000e+00
2.154088e+00 0.000000e+00 0.000000e+00
2.169811e+00 0.000000e+00 0.000000e+00
2.185535e+00 0.000000e+00 0.000000e+00
2.201258e+00 0.000000e+00 0.000000e+00
2.216981e+00 0.000000e+00 0.000000e+00
2.232704e+00 0.000000e+00 0.000000e+00
2.248428e+00 0.000000e+00 0.000000e+00
2.264151e+00 0.000000e+00 0.000000e+00
2.279874e+00 0.000000e+00 0.000000e+00
2.295597e+00 0.000000e+00 0.000000e+00
2.311321e+00 0.000000e+00 0.000000e+00
2.327044e+00 0.000000e+00 0.000000e+00
2.342767e+00 0.000000e+00 0.000000e+00
2.358491e+00 0.000000e+00 0.000000e+00
2.374214e+00 0.000000e+00 0.000000e+00
2.389937e+00 0.000000e+00 0.000000e+00
2.405660e+00 0.000000e+00 0.000000e+00
2.421384e+00 0.000000e+00 0.000000e+00
2.437107e+00 0.000000e+00 0.000000e+00
2.452830e+00 0.000000e+00 0.000000e+00
2.468553e+00 0.000000e+00 0.000000e+00
2.484277e+00 0.000000e+00 0.000000e+00
2.500000e+00 0.000000e+00 0.000000e+00
2.515723e+00 0.000000e+00 0.000000e+00
2.531447e+00 0.000000e+00 0.000000e+00
2.547170e+00 0.000000e+00 0.000000e+00
2.562893e+00 0.000000e+00 0.000000e+00
2.578616e+00 0.000000e+00 0.000000e+00
2.594340e+00 0.000000e+00 0.000000e+00
2.610063e+00 0.000000e+00 0.000000e+00
2.625786e+00 0.000000e+00 0.000000e+00
2.641509e+00 0.000000e+00 0.000000e+00
2.657233e+00 0.000000e+00 0.000000e+00
2.672956e+00 0.000000e+00 0.000000e+00
2.688679e+00 0.000000e+00 0.000000e+00
2.704403e+00 0.000000e+00 0.000000e+00
2.720126e+00 0.000000e+00 0.000000e+00
2.735849e+00 0.000000e+00 0.000000e+00
2.751572e+00 0.000000e+00 0.000000e+00
2.767296e+00 0.000000e+00 0.000000e+00
2.783019e+00 0.000000e+00 0.000000e+00
2.798742e+00 0.000000e+00 0.000000e+00
2.814465e+00 0.000000e+00 0.000000e+00
2.830189e+00 0.000000e+00 0.000000e+00
2.845912e+00 0.000000e+00 0.000000e+00
2.861635e+00 0.000000e+00 0.000000e+00
2.877358e+00 0.000000e+00 0.000000e+00
2.893082e+00 0.000000e+00 0.000000e+00
2.908805e+00 0.000000e+00 0.000000e+00
2.924528e+00 0.000000e+00 0.000000e+00
2.940252e+00 0.000000e+00 0.000000e+00
2.955975e+00 0.000000e+00 0.000000e+00
2.971698e+00 0.000000e+00 0.000000e+00
2.987421e+00 0.000000e+00 0.000000e+00
3.003145e+00 0.000000e+00 0.000000e+00
3.018868e+00 0.000000e+00 0.000000e+00
3.034591e+00 0.000000e+00 0.000000e+00
3.050314e+00 0.000000e+00 0.000000e+00
3.066038e+00 0.000000e+00 0.000000e+00
3.081761e+00 0.000000e+00 0.000000e+00
3.097484e+00 0.000000e+00 0.000000e+00
3.113208e+00 0.000000e+00 0.000000e+00
3.128931e+00 0.000000e+00 0.000000e+00
3.144654e+00 0.000000e+00 0.000000e+00
3.160377e+00 0.000000e+00 0.000000e+00
3.176101e+00 0.000000e+00 0.000000e+00
3.191824e+00 0.000000e+00 0.000000e+00
3.207547e+00 0.000000e+00 0.000000e+00
3.223270e+00 0.000000e+00 0.000000e+00
3.238994e+00 0.000000e+00 0.000000e+00
3.254717e+00 0.000000e+00 0.000000e+00
3.270440e+00 0.000000e+00 0.000000e+00
3.286164e+00 0.000000e+00 0.000000e+00
3.301887e+00 0.000000e+00 0.000000e+00
3.317610e+00 0.000000e+00 0.000000e+00
3.333333e+00 0.000000e+00 0.000000e+00
3.349057e+00 0.000000e+00 0.000000e+00
3.364780e+00 0.000000e+00 0.000000e+00
3.380503e+00 0.000000e+00 0.000000e+00
3.396226e+00 0.000000e+00 0.000000e+00
3.411950e+00 0.000000e+00 0.000000e+00
3.427673e+00 0.000000e+00 0.000000e+00
3.443396e+00 0.000000e+00 0.000000e+00
3.459119e+00 0.000000e+00 0.000000e+00
3.474843e+00 0.000000e+00 0.000000e+00
3.490566e+00 0.000000e+00 0.000000e+00
3.506289e+00 0.000000e+00 0.000000e+00
3.522013e+00 0.000000e+00 0.000000e+00
3.537736e+00 0.000000e+00 0.000000e+00
3.553459e+00 0.000000e+00 0.000000e+00
3.569182e+00 0.000000e+00 0.000000e+00
3.584906e+00 0.000000e+00 0.000000e+00
3.600629e+00 0.000000e+00 0.000000e+00
3.616352e+00 0.000000e+00 0.000000e+00
3.632075e+00 0.000000e+00 0.000000e+00
3.647799e+00 0.000000e+00 0.000000e+00
3.663522e+00 0.000000e+00 0.000000e+00
3.679245e+00 0.000000e+00 0.000000e+00
3.694969e+00 0.000000e+00 0.000000e+00
3.710692e+00 0.000000e+00 0.000000e+00
3.726415e+00 0.000000e+00 0.000000e+00
3.742138e+00 0.000000e+00 0.000000e+00
3.757862e+00 0.000000e+00 0.000000e+00
3.773585e+00 0.000000e+00 0.000000e+00
3.789308e+00 0.000000e+00 0.000000e+00
3.805031e+00 0.000000e+00 0.000000e+00
3.820755e+00 0.000000e+00 0.000000e+00
3.836478e+00 0.000000e+00 0.000000e+00
3.852201e+00 0.000000e+00 0.000000e+00
3.867925e+00 0.000000e+00 0.000000e+00
3.883648e+00 0.000000e+00 0.000000e+00
3.899371e+00 0.000000e+00 0.000000e+00
3.915094e+00 0.000000e+00 0.000000e+00
3.930818e+00 0.000000e+00 0.000000e+00
[...]
<PointData>
<DataArray Name="Velocity" type="Float64" format="ascii" NumberOfComponents="3">
0.000000e+00 0.000000e+00 0
0.000000e+00 0.000000e+00 0
0.000000e+00 0.000000e+00 0
1.113575e-17 0.000000e+00 0
0.000000e+00 0.000000e+00 0
0.000000e+00 0.000000e+00 0
2.236704e-17 0.000000e+00 0
0.000000e+00 0.000000e+00 0
0.000000e+00 0.000000e+00 0
0.000000e+00 0.000000e+00 0
0.000000e+00 0.000000e+00 0
0.000000e+00 0.000000e+00 0
-1.039653e-17 0.000000e+00 0
0.000000e+00 0.000000e+00 0
0.000000e+00 0.000000e+00 0
0.000000e+00 0.000000e+00 0
0.000000e+00 0.000000e+00 0
0.000000e+00 0.000000e+00 0
0.000000e+00 0.000000e+00 0
0.000000e+00 0.000000e+00 0
0.000000e+00 0.000000e+00 0
0.000000e+00 0.000000e+00 0
0.000000e+00 0.000000e+00 0
0.000000e+00 0.000000e+00 0
-1.948456e-17 0.000000e+00 0
0.000000e+00 0.000000e+00 0
0.000000e+00 0.000000e+00 0
0.000000e+00 0.000000e+00 0
0.000000e+00 0.000000e+00 0
0.000000e+00 0.000000e+00 0
0.000000e+00 0.000000e+00 0
0.000000e+00 0.000000e+00 0
0.000000e+00 0.000000e+00 0
0.000000e+00 0.000000e+00 0
0.000000e+00 0.000000e+00 0
0.000000e+00 0.000000e+00 0
0.000000e+00 0.000000e+00 0
0.000000e+00 0.000000e+00 0
0.000000e+00 0.000000e+00 0
0.000000e+00 0.000000e+00 0
0.000000e+00 0.000000e+00 0
0.000000e+00 0.000000e+00 0
0.000000e+00 0.000000e+00 0
0.000000e+00 0.000000e+00 0
0.000000e+00 0.000000e+00 0
0.000000e+00 0.000000e+00 0
0.000000e+00 0.000000e+00 0
0.000000e+00 0.000000e+00 0
2.007382e-17 0.000000e+00 0
0.000000e+00 0.000000e+00 0
0.000000e+00 0.000000e+00 0
0.000000e+00 0.000000e+00 0
0.000000e+00 0.000000e+00 0
0.000000e+00 0.000000e+00 0
0.000000e+00 0.000000e+00 0
0.000000e+00 0.000000e+00 0
0.000000e+00 0.000000e+00 0
0.000000e+00 0.000000e+00 0
0.000000e+00 0.000000e+00 0
0.000000e+00 0.000000e+00 0
0.000000e+00 0.000000e+00 0
0.000000e+00 0.000000e+00 0
0.000000e+00 0.000000e+00 0
0.000000e+00 0.000000e+00 0
0.000000e+00 0.000000e+00 0
0.000000e+00 0.000000e+00 0
0.000000e+00 0.000000e+00 0
0.000000e+00 0.000000e+00 0
0.000000e+00 0.000000e+00 0
0.000000e+00 0.000000e+00 0
0.000000e+00 0.000000e+00 0
0.000000e+00 0.000000e+00 0
0.000000e+00 0.000000e+00 0
0.000000e+00 0.000000e+00 0
0.000000e+00 0.000000e+00 0
0.000000e+00 0.000000e+00 0
0.000000e+00 0.000000e+00 0
0.000000e+00 0.000000e+00 0
0.000000e+00 0.000000e+00 0
0.000000e+00 0.000000e+00 0
0.000000e+00 0.000000e+00 0
0.000000e+00 0.000000e+00 0
0.000000e+00 0.000000e+00 0
0.000000e+00 0.000000e+00 0
0.000000e+00 0.000000e+00 0
0.000000e+00 0.000000e+00 0
0.000000e+00 0.000000e+00 0
0.000000e+00 0.000000e+00 0
0.000000e+00 0.000000e+00 0
0.000000e+00 0.000000e+00 0
0.000000e+00 0.000000e+00 0
0.000000e+00 0.000000e+00 0
0.000000e+00 0.000000e+00 0
0.000000e+00 0.000000e+00 0
0.000000e+00 0.000000e+00 0
0.000000e+00 0.000000e+00 0
0.000000e+00 0.000000e+00 0
0.000000e+00 0.000000e+00 0
0.000000e+00 0.000000e+00 0
0.000000e+00 0.000000e+00 0
0.000000e+00 0.000000e+00 0
0.000000e+00 0.000000e+00 0
0.000000e+00 0.000000e+00 0
0.000000e+00 0.000000e+00 0
0.000000e+00 0.000000e+00 0
0.000000e+00 0.000000e+00 0
0.000000e+00 0.000000e+00 0
0.000000e+00 0.000000e+00 0
0.000000e+00 0.000000e+00 0
0.000000e+00 0.000000e+00 0
0.000000e+00 0.000000e+00 0
0.000000e+00 0.000000e+00 0
0.000000e+00 0.000000e+00 0
0.000000e+00 0.000000e+00 0
0.000000e+00 0.000000e+00 0
0.000000e+00 0.000000e+00 0
0.000000e+00 0.000000e+00 0
0.000000e+00 0.000000e+00 0
0.000000e+00 0.000000e+00 0
0.000000e+00 0.000000e+00 0
0.000000e+00 0.000000e+00 0
0.000000e+00 0.000000e+00 0
0.000000e+00 0.000000e+00 0
0.000000e+00 0.000000e+00 0
0.000000e+00 0.000000e+00 0
0.000000e+00 0.000000e+00 0
0.000000e+00 0.000000e+00 0
0.000000e+00 0.000000e+00 0
0.000000e+00 0.000000e+00 0
0.000000e+00 0.000000e+00 0
-1.364231e-17 0.000000e+00 0
0.000000e+00 0.000000e+00 0
0.000000e+00 0.000000e+00 0
0.000000e+00 0.000000e+00 0
-1.328182e-17 0.000000e+00 0
0.000000e+00 0.000000e+00 0
0.000000e+00 0.000000e+00 0
0.000000e+00 0.000000e+00 0
-1.293938e-17 0.000000e+00 0
0.000000e+00 0.000000e+00 0
0.000000e+00 0.000000e+00 0
0.000000e+00 0.000000e+00 0
-1.261341e-17 0.000000e+00 0
0.000000e+00 0.000000e+00 0
0.000000e+00 0.000000e+00 0
0.000000e+00 0.000000e+00 0
-1.230243e-17 0.000000e+00 0
0.000000e+00 0.000000e+00 0
0.000000e+00 0.000000e+00 0
0.000000e+00 0.000000e+00 0
-1.200518e-17 0.000000e+00 0
0.000000e+00 0.000000e+00 0
0.000000e+00 0.000000e+00 0
0.000000e+00 0.000000e+00 0
-1.172047e-17 0.000000e+00 0
0.000000e+00 0.000000e+00 0
0.000000e+00 0.000000e+00 0
0.000000e+00 0.000000e+00 0
-1.144726e-17 0.000000e+00 0
0.000000e+00 0.000000e+00 0
0.000000e+00 0.000000e+00 0
-1.124934e-17 0.000000e+00 0
0.000000e+00 0.000000e+00 0
0.000000e+00 0.000000e+00 0
0.000000e+00 0.000000e+00 0
-1.099407e-17 0.000000e+00 0
0.000000e+00 0.000000e+00 0
0.000000e+00 0.000000e+00 0
0.000000e+00 0.000000e+00 0
-1.074795e-17 0.000000e+00 0
0.000000e+00 0.000000e+00 0
0.000000e+00 0.000000e+00 0
0.000000e+00 0.000000e+00 0
-1.051028e-17 0.000000e+00 0
0.000000e+00 0.000000e+00 0
0.000000e+00 0.000000e+00 0
0.000000e+00 0.000000e+00 0
-1.028042e-17 0.000000e+00 0
0.000000e+00 0.000000e+00 0
0.000000e+00 0.000000e+00 0
0.000000e+00 0.000000e+00 0
-1.005782e-17 0.000000e+00 0
0.000000e+00 0.000000e+00 0
0.000000e+00 0.000000e+00 0
0.000000e+00 0.000000e+00 0
-9.841953e-18 0.000000e+00 0
0.000000e+00 0.000000e+00 0
0.000000e+00 0.000000e+00 0
0.000000e+00 0.000000e+00 0
-9.632363e-18 0.000000e+00 0
0.000000e+00 0.000000e+00 0
0.000000e+00 0.000000e+00 0
-9.479031e-18 0.000000e+00 0
0.000000e+00 0.000000e+00 0
0.000000e+00 0.000000e+00 0
0.000000e+00 0.000000e+00 0
-9.279439e-18 0.000000e+00 0
0.000000e+00 0.000000e+00 0
0.000000e+00 0.000000e+00 0
0.000000e+00 0.000000e+00 0
-9.085064e-18 0.000000e+00 0
0.000000e+00 0.000000e+00 0
0.000000e+00 0.000000e+00 0
0.000000e+00 0.000000e+00 0
-8.895590e-18 0.000000e+00 0
0.000000e+00 0.000000e+00 0
0.000000e+00 0.000000e+00 0
0.000000e+00 0.000000e+00 0
-8.710728e-18 0.000000e+00 0
0.000000e+00 0.000000e+00 0
0.000000e+00 0.000000e+00 0
0.000000e+00 0.000000e+00 0
-8.530215e-18 0.000000e+00 0
0.000000e+00 0.000000e+00 0
0.000000e+00 0.000000e+00 0
0.000000e+00 0.000000e+00 0
-8.353813e-18 0.000000e+00 0
0.000000e+00 0.000000e+00 0
0.000000e+00 0.000000e+00 0
0.000000e+00 0.000000e+00 0
-8.181303e-18 0.000000e+00 0
0.000000e+00 0.000000e+00 0
0.000000e+00 0.000000e+00 0
0.000000e+00 0.000000e+00 0
-8.012488e-18 0.000000e+00 0
0.000000e+00 0.000000e+00 0
0.000000e+00 0.000000e+00 0
-7.888192e-18 0.000000e+00 0
0.000000e+00 0.000000e+00 0
0.000000e+00 0.000000e+00 0
0.000000e+00 0.000000e+00 0
-7.725416e-18 0.000000e+00 0
0.000000e+00 0.000000e+00 0
0.000000e+00 0.000000e+00 0
0.000000e+00 0.000000e+00 0
-7.565872e-18 0.000000e+00 0
0.000000e+00 0.000000e+00 0
0.000000e+00 0.000000e+00 0
0.000000e+00 0.000000e+00 0
-7.409418e-18 0.000000e+00 0
0.000000e+00 0.000000e+00 0
0.000000e+00 0.000000e+00 0
0.000000e+00 0.000000e+00 0
-7.255924e-18 0.000000e+00 0
0.000000e+00 0.000000e+00 0
0.000000e+00 0.000000e+00 0
0.000000e+00 0.000000e+00 0
-7.105270e-18 0.000000e+00 0
0.000000e+00 0.000000e+00 0
0.000000e+00 0.000000e+00 0
0.000000e+00 0.000000e+00 0
-6.957348e-18 0.000000e+00 0
0.000000e+00 0.000000e+00 0
0.000000e+00 0.000000e+00 0
0.000000e+00 0.000000e+00 0
0.000000e+00 0.000000e+00 0
0.000000e+00 0.000000e+00 0
0.000000e+00 0.000000e+00 0
0.000000e+00 0.000000e+00 0
0.000000e+00 0.000000e+00 0
0.000000e+00 0.000000e+00 0
0.000000e+00 0.000000e+00 0
0.000000e+00 0.000000e+00 0
0.000000e+00 0.000000e+00 0
0.000000e+00 0.000000e+00 0
0.000000e+00 0.000000e+00 0
0.000000e+00 0.000000e+00 0
0.000000e+00 0.000000e+00 0
0.000000e+00 0.000000e+00 0
0.000000e+00 0.000000e+00 0
0.000000e+00 0.000000e+00 0
0.000000e+00 0.000000e+00 0
0.000000e+00 0.000000e+00 0
0.000000e+00 0.000000e+00 0
0.000000e+00 0.000000e+00 0
0.000000e+00 0.000000e+00 0
0.000000e+00 0.000000e+00 0
0.000000e+00 0.000000e+00 0
0.000000e+00 0.000000e+00 0
0.000000e+00 0.000000e+00 0
0.000000e+00 0.000000e+00 0
0.000000e+00 0.000000e+00 0
0.000000e+00 0.000000e+00 0
0.000000e+00 0.000000e+00 0
0.000000e+00 0.000000e+00 0
0.000000e+00 0.000000e+00 0
0.000000e+00 0.000000e+00 0
0.000000e+00 0.000000e+00 0
0.000000e+00 0.000000e+00 0
0.000000e+00 0.000000e+00 0
0.000000e+00 0.000000e+00 0
0.000000e+00 0.000000e+00 0
0.000000e+00 0.000000e+00 0
0.000000e+00 0.000000e+00 0
0.000000e+00 0.000000e+00 0
0.000000e+00 0.000000e+00 0
0.000000e+00 0.000000e+00 0
0.000000e+00 0.000000e+00 0
0.000000e+00 0.000000e+00 0
0.000000e+00 0.000000e+00 0
0.000000e+00 0.000000e+00 0
0.000000e+00 0.000000e+00 0
0.000000e+00 0.000000e+00 0
0.000000e+00 0.000000e+00 0
0.000000e+00 0.000000e+00 0
0.000000e+00 0.000000e+00 0
0.000000e+00 0.000000e+00 0
0.000000e+00 0.000000e+00 0
0.000000e+00 0.000000e+00 0
0.000000e+00 0.000000e+00 0
0.000000e+00 0.000000e+00 0
0.000000e+00 0.000000e+00 0
0.000000e+00 0.000000e+00 0
0.000000e+00 0.000000e+00 0
0.000000e+00 0.000000e+00 0
0.000000e+00 0.000000e+00 0
0.000000e+00 0.000000e+00 0
0.000000e+00 0.000000e+00 0
0.000000e+00 0.000000e+00 0
1.580385e+00 0.000000e+00 0
1.580392e+00 -3.855070e-05 0
1.580408e+00 -5.647717e-05 0
1.580431e+00 -6.557040e-05 0
1.580459e+00 -7.041724e-05 0
1.580489e+00 -7.300104e-05 0
1.580522e+00 -7.427110e-05 0
1.580555e+00 -7.472507e-05 0
1.580590e+00 -7.464486e-05 0
1.580625e+00 -7.420094e-05 0
1.580660e+00 -7.350222e-05 0
1.580695e+00 -7.262160e-05 0
1.580731e+00 -7.160979e-05 0
1.580766e+00 -7.050316e-05 0
1.580801e+00 -6.932837e-05 0
1.580835e+00 -6.810526e-05 0
1.580870e+00 -6.684877e-05 0
1.580903e+00 -6.557034e-05 0
1.580937e+00 -6.427881e-05 0
1.580970e+00 -6.298125e-05 0
1.581002e+00 -6.168343e-05 0
1.581035e+00 -6.039013e-05 0
1.581066e+00 -5.910533e-05 0
1.581097e+00 -5.783217e-05 0
1.581128e+00 -5.657307e-05 0
1.581158e+00 -5.532979e-05 0
1.581187e+00 -5.410366e-05 0
1.581217e+00 -5.289577e-05 0
1.581245e+00 -5.170713e-05 0
1.581273e+00 -5.053872e-05 0
1.581301e+00 -4.939143e-05 0
1.581328e+00 -4.826587e-05 0
1.581354e+00 -4.716236e-05 0
1.581381e+00 -4.608092e-05 0
1.581406e+00 -4.502144e-05 0
1.581431e+00 -4.398383e-05 0
1.581456e+00 -4.296814e-05 0
1.581480e+00 -4.197450e-05 0
1.581504e+00 -4.100298e-05 0
1.581527e+00 -4.005352e-05 0
1.581550e+00 -3.912580e-05 0
1.581573e+00 -3.821937e-05 0
1.581595e+00 -3.733379e-05 0
1.581617e+00 -3.646875e-05 0
1.581638e+00 -3.562412e-05 0
1.581659e+00 -3.479981e-05 0
1.581679e+00 -3.399563e-05 0
1.581700e+00 -3.321120e-05 0
1.581719e+00 -3.244595e-05 0
1.581739e+00 -3.169929e-05 0
1.581758e+00 -3.097073e-05 0
1.581776e+00 -3.026003e-05 0
1.581795e+00 -2.956708e-05 0
1.581813e+00 -2.889177e-05 0
1.581831e+00 -2.823384e-05 0
1.581848e+00 -2.759276e-05 0
1.581865e+00 -2.696789e-05 0
1.581882e+00 -2.635860e-05 0
1.581898e+00 -2.576445e-05 0
1.581915e+00 -2.518524e-05 0
1.581930e+00 -2.462091e-05 0
1.581946e+00 -2.407137e-05 0
1.581962e+00 -2.353637e-05 0
1.581977e+00 -2.301542e-05 0
1.581992e+00 -2.250793e-05 0
1.582006e+00 -2.201333e-05 0
1.582021e+00 -2.153121e-05 0
1.582035e+00 -2.106136e-05 0
1.582049e+00 -2.060367e-05 0
1.582062e+00 -2.015805e-05 0
1.582076e+00 -1.972429e-05 0
1.582089e+00 -1.930205e-05 0
1.582102e+00 -1.889090e-05 0
1.582115e+00 -1.849038e-05 0
1.582127e+00 -1.810015e-05 0
1.582140e+00 -1.771992e-05 0
1.582152e+00 -1.734953e-05 0
1.582164e+00 -1.698880e-05 0
1.582176e+00 -1.663757e-05 0
1.582188e+00 -1.629561e-05 0
1.582199e+00 -1.596266e-05 0
1.582210e+00 -1.563842e-05 0
1.582222e+00 -1.532264e-05 0
1.582233e+00 -1.501508e-05 0
1.582244e+00 -1.471551e-05 0
1.582254e+00 -1.442371e-05 0
1.582265e+00 -1.413946e-05 0
1.582275e+00 -1.386255e-05 0
1.582285e+00 -1.359278e-05 0
1.582296e+00 -1.332999e-05 0
1.582306e+00 -1.307408e-05 0
1.582315e+00 -1.282490e-05 0
1.582325e+00 -1.258232e-05 0
1.582335e+00 -1.234609e-05 0
1.582344e+00 -1.211594e-05 0
1.582353e+00 -1.189160e-05 0
1.582363e+00 -1.167286e-05 0
1.582372e+00 -1.145959e-05 0
1.582381e+00 -1.125178e-05 0
1.582390e+00 -1.104941e-05 0
1.582398e+00 -1.085242e-05 0
1.582407e+00 -1.066066e-05 0
1.582416e+00 -1.047387e-05 0
1.582424e+00 -1.029177e-05 0
1.582433e+00 -1.011413e-05 0
1.582441e+00 -9.940789e-06 0
1.582449e+00 -9.771728e-06 0
1.582457e+00 -9.606968e-06 0
1.582465e+00 -9.446519e-06 0
1.582473e+00 -9.290309e-06 0
1.582481e+00 -9.138167e-06 0
1.582488e+00 -8.989856e-06 0
1.582496e+00 -8.845139e-06 0
1.582504e+00 -8.703850e-06 0
1.582511e+00 -8.565926e-06 0
1.582519e+00 -8.431387e-06 0
1.582526e+00 -8.300278e-06 0
1.582533e+00 -8.172593e-06 0
1.582540e+00 -8.048227e-06 0
1.582547e+00 -7.926980e-06 0
1.582555e+00 -7.808621e-06 0
1.582562e+00 -7.692969e-06 0
1.582568e+00 -7.579953e-06 0
1.582575e+00 -7.469617e-06 0
1.582582e+00 -7.362046e-06 0
1.582589e+00 -7.257276e-06 0
1.582595e+00 -7.155227e-06 0
1.582602e+00 -7.055699e-06 0
1.582609e+00 -6.958454e-06 0
1.582615e+00 -6.863317e-06 0
1.582621e+00 -6.770249e-06 0
1.582628e+00 -6.679328e-06 0
1.582634e+00 -6.590668e-06 0
1.582640e+00 -6.504311e-06 0
1.582647e+00 -6.420160e-06 0
1.582653e+00 -6.338012e-06 0
1.582659e+00 -6.257650e-06 0
1.582665e+00 -6.178943e-06 0
1.582671e+00 -6.101897e-06 0
1.582677e+00 -6.026614e-06 0
1.582683e+00 -5.953192e-06 0
1.582689e+00 -5.881639e-06 0
1.582695e+00 -5.811842e-06 0
1.582700e+00 -5.743614e-06 0
1.582706e+00 -5.676784e-06 0
1.582712e+00 -5.611274e-06 0
1.582717e+00 -5.547116e-06 0
1.582723e+00 -5.484405e-06 0
1.582729e+00 -5.423213e-06 0
1.582734e+00 -5.363533e-06 0
1.582740e+00 -5.305260e-06 0
1.582745e+00 -5.248240e-06 0
1.582750e+00 -5.192338e-06 0
1.582756e+00 -5.137495e-06 0
1.582761e+00 -5.083738e-06 0
1.582766e+00 -5.031141e-06 0
1.582772e+00 -4.979763e-06 0
1.582777e+00 -4.929600e-06 0
1.582782e+00 -4.880571e-06 0
1.582787e+00 -4.832559e-06 0
1.582792e+00 -4.785460e-06 0
1.582798e+00 -4.739234e-06 0
1.582803e+00 -4.693899e-06 0
1.582808e+00 -4.649506e-06 0
1.582813e+00 -4.606086e-06 0
1.582818e+00 -4.563616e-06 0
1.582823e+00 -4.522028e-06 0
1.582827e+00 -4.481241e-06 0
1.582832e+00 -4.441205e-06 0
1.582837e+00 -4.401914e-06 0
1.582842e+00 -4.363393e-06 0
1.582847e+00 -4.325662e-06 0
1.582852e+00 -4.288706e-06 0
1.582856e+00 -4.252475e-06 0
1.582861e+00 -4.216910e-06 0
1.582866e+00 -4.181971e-06 0
1.582870e+00 -4.147658e-06 0
1.582875e+00 -4.113994e-06 0
1.582880e+00 -4.080996e-06 0
1.582884e+00 -4.048652e-06 0
1.582889e+00 -4.016915e-06 0
1.582893e+00 -3.985729e-06 0
1.582898e+00 -3.955056e-06 0
1.582902e+00 -3.924894e-06 0
1.582907e+00 -3.895264e-06 0
1.582911e+00 -3.866191e-06 0
1.582916e+00 -3.837673e-06 0
1.582920e+00 -3.809678e-06 0
1.582924e+00 -3.782159e-06 0
1.582929e+00 -3.755077e-06 0
1.582933e+00 -3.728415e-06 0
1.582937e+00 -3.702184e-06 0
1.582942e+00 -3.676398e-06 0
1.582946e+00 -3.651065e-06 0
1.582950e+00 -3.626173e-06 0
1.582955e+00 -3.601698e-06 0
1.582959e+00 -3.577611e-06 0
1.582963e+00 -3.553893e-06 0
1.582967e+00 -3.530537e-06 0
1.582971e+00 -3.507543e-06 0
1.582975e+00 -3.484911e-06 0
1.582979e+00 -3.462637e-06 0
1.582984e+00 -3.440709e-06 0
1.582988e+00 -3.419116e-06 0
1.582992e+00 -3.397847e-06 0
1.582996e+00 -3.376895e-06 0
1.583000e+00 -3.356253e-06 0
1.583004e+00 -3.335914e-06 0
1.583008e+00 -3.315871e-06 0
1.583012e+00 -3.296114e-06 0
1.583016e+00 -3.276638e-06 0
1.583020e+00 -3.257436e-06 0
1.583023e+00 -3.238502e-06 0
1.583027e+00 -3.219833e-06 0
1.583031e+00 -3.201423e-06 0
1.583035e+00 -3.183266e-06 0
1.583039e+00 -3.165353e-06 0
1.583043e+00 -3.147679e-06 0
1.583047e+00 -3.130237e-06 0
1.583050e+00 -3.113024e-06 0
1.583054e+00 -3.096035e-06 0
1.583058e+00 -3.079265e-06 0
1.583062e+00 -3.062709e-06 0
1.583065e+00 -3.046361e-06 0
1.583069e+00 -3.030217e-06 0
1.583073e+00 -3.014273e-06 0
1.583077e+00 -2.998524e-06 0
1.583080e+00 -2.982967e-06 0
1.583084e+00 -2.967598e-06 0
1.583088e+00 -2.952412e-06 0
1.583091e+00 -2.937404e-06 0
1.583095e+00 -2.922571e-06 0
1.583098e+00 -2.907907e-06 0
1.583102e+00 -2.893410e-06 0
1.583106e+00 -2.879077e-06 0
1.583109e+00 -2.864905e-06 0
1.583113e+00 -2.850891e-06 0
1.583116e+00 -2.837032e-06 0
1.583120e+00 -2.823322e-06 0
1.583123e+00 -2.809758e-06 0
1.583127e+00 -2.796338e-06 0
1.583130e+00 -2.783057e-06 0
1.583134e+00 -2.769913e-06 0
1.583137e+00 -2.756905e-06 0
1.583140e+00 -2.744029e-06 0
1.583144e+00 -2.731282e-06 0
1.583147e+00 -2.718661e-06 0
1.583151e+00 -2.706164e-06 0
1.583154e+00 -2.693786e-06 0
1.583157e+00 -2.681526e-06 0
1.583161e+00 -2.669381e-06 0
1.583164e+00 -2.657349e-06 0
1.583167e+00 -2.645426e-06 0
1.583171e+00 -2.633611e-06 0
1.583174e+00 -2.621901e-06 0
1.583177e+00 -2.610292e-06 0
1.583181e+00 -2.598783e-06 0
1.583184e+00 -2.587371e-06 0
1.583187e+00 -2.576054e-06 0
1.583190e+00 -2.564828e-06 0
1.583194e+00 -2.553692e-06 0
1.583197e+00 -2.542643e-06 0
1.583200e+00 -2.531678e-06 0
1.583203e+00 -2.520794e-06 0
1.583207e+00 -2.509989e-06 0
1.583210e+00 -2.499260e-06 0
1.583213e+00 -2.488603e-06 0
1.583216e+00 -2.478016e-06 0
1.583219e+00 -2.467496e-06 0
1.583222e+00 -2.457040e-06 0
1.583225e+00 -2.446645e-06 0
1.583229e+00 -2.436307e-06 0
1.583232e+00 -2.426022e-06 0
1.583235e+00 -2.415787e-06 0
1.583238e+00 -2.405597e-06 0
1.583241e+00 -2.395449e-06 0
1.583244e+00 -2.385338e-06 0
1.583247e+00 -2.375259e-06 0
1.583250e+00 -2.365206e-06 0
1.583253e+00 -2.355175e-06 0
1.583256e+00 -2.345158e-06 0
1.583259e+00 -2.335150e-06 0
1.583262e+00 -2.325143e-06 0
1.583265e+00 -2.315129e-06 0
1.583268e+00 -2.305099e-06 0
1.583271e+00 -2.295043e-06 0
1.583274e+00 -2.284950e-06 0
1.583277e+00 -2.274808e-06 0
1.583280e+00 -2.264602e-06 0
1.583283e+00 -2.254317e-06 0
1.583286e+00 -2.243933e-06 0
1.583288e+00 -2.233431e-06 0
1.583291e+00 -2.222785e-06 0
1.583294e+00 -2.211966e-06 0
1.583297e+00 -2.200942e-06 0
1.583300e+00 -2.189672e-06 0
1.583303e+00 -2.178107e-06 0
1.583306e+00 -2.166191e-06 0
1.583308e+00 -2.153853e-06 0
1.583311e+00 -2.141007e-06 0
1.583314e+00 -2.127546e-06 0
1.583317e+00 -2.113335e-06 0
1.583319e+00 -2.098203e-06 0
1.583322e+00 -2.081931e-06 0
1.583325e+00 -2.064233e-06 0
1.583328e+00 -2.044732e-06 0
1.583330e+00 -2.022921e-06 0
1.583333e+00 -1.998109e-06 0
1.583335e+00 -1.969344e-06 0
1.583338e+00 -1.935281e-06 0
1.583341e+00 -1.894005e-06 0
1.583343e+00 -1.842731e-06 0
1.583346e+00 -1.777366e-06 0
1.583348e+00 -1.691809e-06 0
1.583350e+00 -1.576868e-06 0
1.583352e+00 -1.418892e-06 0
1.583354e+00 -1.188425e-06 0
1.583356e+00 -1.078124e-06 0
1.583356e+00 -1.106514e-06 0
3.115245e+00 0.000000e+00 0
3.115236e+00 -2.385284e-05 0
3.115224e+00 -4.069933e-05 0
3.115211e+00 -5.194287e-05 0
3.115201e+00 -5.940272e-05 0
3.115191e+00 -6.437442e-05 0
3.115184e+00 -6.768692e-05 0
3.115178e+00 -6.986337e-05 0
3.115173e+00 -7.123938e-05 0
3.115169e+00 -7.203627e-05 0
3.115166e+00 -7.240453e-05 0
3.115164e+00 -7.244955e-05 0
3.115163e+00 -7.224724e-05 0
3.115162e+00 -7.185351e-05 0
3.115162e+00 -7.131037e-05 0
3.115163e+00 -7.064986e-05 0
3.115163e+00 -6.989673e-05 0
3.115164e+00 -6.907039e-05 0
3.115166e+00 -6.818628e-05 0
3.115168e+00 -6.725692e-05 0
3.115170e+00 -6.629267e-05 0
3.115172e+00 -6.530219e-05 0
3.115175e+00 -6.429273e-05 0
3.115177e+00 -6.327023e-05 0
3.115180e+00 -6.223953e-05 0
3.115184e+00 -6.120454e-05 0
3.115187e+00 -6.016847e-05 0
3.115190e+00 -5.913411e-05 0
3.115194e+00 -5.810400e-05 0
3.115197e+00 -5.708043e-05 0
3.115201e+00 -5.606542e-05 0
3.115205e+00 -5.506061e-05 0
3.115209e+00 -5.406720e-05 0
3.115213e+00 -5.308606e-05 0
3.115217e+00 -5.211789e-05 0
3.115221e+00 -5.116334e-05 0
3.115225e+00 -5.022314e-05 0
3.115230e+00 -4.929798e-05 0
3.115234e+00 -4.838846e-05 0
3.115238e+00 -4.749493e-05 0
3.115243e+00 -4.661750e-05 0
3.115247e+00 -4.575616e-05 0
3.115251e+00 -4.491087e-05 0
3.115256e+00 -4.408171e-05 0
3.115260e+00 -4.326887e-05 0
3.115265e+00 -4.247253e-05 0
3.115269e+00 -4.169274e-05 0
3.115274e+00 -4.092933e-05 0
3.115278e+00 -4.018197e-05 0
3.115283e+00 -3.945031e-05 0
3.115287e+00 -3.873413e-05 0
3.115292e+00 -3.803338e-05 0
3.115296e+00 -3.734811e-05 0
3.115301e+00 -3.667833e-05 0
3.115305e+00 -3.602386e-05 0
3.115310e+00 -3.538430e-05 0
3.115314e+00 -3.475914e-05 0
3.115319e+00 -3.414794e-05 0