<?xml version="1.0"?>
<VTKFile type="StructuredGrid">
<StructuredGrid WholeExtent="0 38 0 6 0 0 ">
<Piece Extent="0 38 0 6 0 0 ">
<Points>
<DataArray type="Float64" format="ascii" NumberOfComponents="3">
0.000000e+00 0.000000e+00 0.000000e+00
1.315789e-01 0.000000e+00 0.000000e+00
2.631579e-01 0.000000e+00 0.000000e+00
3.947368e-01 0.000000e+00 0.000000e+00
5.263158e-01 0.000000e+00 0.000000e+00
6.578947e-01 0.000000e+00 0.000000e+00
7.894737e-01 0.000000e+00 0.000000e+00
9.210526e-01 0.000000e+00 0.000000e+00
1.052632e+00 0.000000e+00 0.000000e+00
1.184211e+00 0.000000e+00 0.000000e+00
1.315789e+00 0.000000e+00 0.000000e+00
1.447368e+00 0.000000e+00 0.000000e+00
1.578947e+00 0.000000e+00 0.000000e+00
1.710526e+00 0.000000e+00 0.000000e+00
1.842105e+00 0.000000e+00 0.000000e+00
1.973684e+00 0.000000e+00 0.000000e+00
2.105263e+00 0.000000e+00 0.000000e+00
2.236842e+00 0.000000e+00 0.000000e+00
2.368421e+00 0.000000e+00 0.000000e+00
2.500000e+00 0.000000e+00 0.000000e+00
2.631579e+00 0.000000e+00 0.000000e+00
2.763158e+00 0.000000e+00 0.000000e+00
2.894737e+00 0.000000e+00 0.000000e+00
3.026316e+00 0.000000e+00 0.000000e+00
3.157895e+00 0.000000e+00 0.000000e+00
3.289474e+00 0.000000e+00 0.000000e+00
3.421053e+00 0.000000e+00 0.000000e+00
3.552632e+00 0.000000e+00 0.000000e+00
3.684211e+00 0.000000e+00 0.000000e+00
3.815789e+00 0.000000e+00 0.000000e+00
3.947368e+00 0.000000e+00 0.000000e+00
4.078947e+00 0.000000e+00 0.000000e+00
4.210526e+00 0.000000e+00 0.000000e+00
4.342105e+00 0.000000e+00 0.000000e+00
4.473684e+00 0.000000e+00 0.000000e+00
4.605263e+00 0.000000e+00 0.000000e+00
4.736842e+00 0.000000e+00 0.000000e+00
4.868421e+00 0.000000e+00 0.000000e+00
5.000000e+00 0.000000e+00 0.000000e+00
0.000000e+00 1.666667e-01 0.000000e+00
1.315789e-01 1.666667e-01 0.000000e+00
2.631579e-01 1.666667e-01 0.000000e+00
3.947368e-01 1.666667e-01 0.000000e+00
5.263158e-01 1.666667e-01 0.000000e+00
6.578947e-01 1.666667e-01 0.000000e+00
7.894737e-01 1.666667e-01 0.000000e+00
9.210526e-01 1.666667e-01 0.000000e+00
1.052632e+00 1.666667e-01 0.000000e+00
1.184211e+00 1.666667e-01 0.000000e+00
1.315789e+00 1.666667e-01 0.000000e+00
1.447368e+00 1.666667e-01 0.000000e+00
1.578947e+00 1.666667e-01 0.000000e+00
1.710526e+00 1.666667e-01 0.000000e+00
1.842105e+00 1.666667e-01 0.000000e+00
1.973684e+00 1.666667e-01 0.000000e+00
2.105263e+00 1.666667e-01 0.000000e+00
2.236842e+00 1.666667e-01 0.000000e+00
2.368421e+00 1.666667e-01 0.000000e+00
2.500000e+00 1.666667e-01 0.000000e+00
2.631579e+00 1.666667e-01 0.000000e+00
2.763158e+00 1.666667e-01 0.000000e+00
2.894737e+00 1.666667e-01 0.000000e+00
3.026316e+00 1.666667e-01 0.000000e+00
3.157895e+00 1.666667e-01 0.000000e+00
3.289474e+00 1.666667e-01 0.000000e+00
3.421053e+00 1.666667e-01 0.000000e+00
3.552632e+00 1.666667e-01 0.000000e+00
3.684211e+00 1.666667e-01 0.000000e+00
3.815789e+00 1.666667e-01 0.000000e+00
3.947368e+00 1.666667e-01 0.000000e+00
4.078947e+00 1.666667e-01 0.000000e+00
4.210526e+00 1.666667e-01 0.000000e+00
4.342105e+00 1.666667e-01 0.000000e+00
4.473684e+00 1.666667e-01 0.000000e+00
4.605263e+00 1.666667e-01 0.000000e+00
4.736842e+00 1.666667e-01 0.000000e+00
4.868421e+00 1.666667e-01 0.000000e+00
5.000000e+00 1.666667e-01 0.000000e+00
0.000000e+00 3.333333e-01 0.000000e+00
1.315789e-01 3.333333e-01 0.000000e+00
2.631579e-01 3.333333e-01 0.000000e+00
3.947368e-01 3.333333e-01 0.000000e+00
5.263158e-01 3.333333e-01 0.000000e+00
6.578947e-01 3.333333e-01 0.000000e+00
7.894737e-01 3.333333e-01 0.000000e+00
9.210526e-01 3.333333e-01 0.000000e+00
1.052632e+00 3.333333e-01 0.000000e+00
1.184211e+00 3.333333e-01 0.000000e+00
1.315789e+00 3.333333e-01 0.000000e+00
1.447368e+00 3.333333e-01 0.000000e+00
1.578947e+00 3.333333e-01 0.000000e+00
1.710526e+00 3.333333e-01 0.000000e+00
1.842105e+00 3.333333e-01 0.000000e+00
1.973684e+00 3.333333e-01 0.000000e+00
2.105263e+00 3.333333e-01 0.000000e+00
2.236842e+00 3.333333e-01 0.000000e+00
2.368421e+00 3.333333e-01 0.000000e+00
2.500000e+00 3.333333e-01 0.000000e+00
2.631579e+00 3.333333e-01 0.000000e+00
2.763158e+00 3.333333e-01 0.000000e+00
2.894737e+00 3.333333e-01 0.000000e+00
3.026316e+00 3.333333e-01 0.000000e+00
3.157895e+00 3.333333e-01 0.000000e+00
3.289474e+00 3.333333e-01 0.000000e+00
3.421053e+00 3.333333e-01 0.000000e+00
3.552632e+00 3.333333e-01 0.000000e+00
3.684211e+00 3.333333e-01 0.000000e+00
3.815789e+00 3.333333e-01 0.000000e+00
3.947368e+00 3.333333e-01 0.000000e+00
4.078947e+00 3.333333e-01 0.000000e+00
4.210526e+00 3.333333e-01 0.000000e+00
4.342105e+00 3.333333e-01 0.000000e+00
4.473684e+00 3.333333e-01 0.000000e+00
4.605263e+00 3.333333e-01 0.000000e+00
4.736842e+00 3.333333e-01 0.000000e+00
4.868421e+00 3.333333e-01 0.000000e+00
5.000000e+00 3.333333e-01 0.000000e+00
0.000000e+00 5.000000e-01 0.000000e+00
1.315789e-01 5.000000e-01 0.000000e+00
2.631579e-01 5.000000e-01 0.000000e+00
3.947368e-01 5.000000e-01 0.000000e+00
5.263158e-01 5.000000e-01 0.000000e+00
6.578947e-01 5.000000e-01 0.000000e+00
7.894737e-01 5.000000e-01 0.000000e+00
9.210526e-01 5.000000e-01 0.000000e+00
1.052632e+00 5.000000e-01 0.000000e+00
1.184211e+00 5.000000e-01 0.000000e+00
1.315789e+00 5.000000e-01 0.000000e+00
1.447368e+00 5.000000e-01 0.000000e+00
1.578947e+00 5.000000e-01 0.000000e+00
1.710526e+00 5.000000e-01 0.000000e+00
1.842105e+00 5.000000e-01 0.000000e+00
1.973684e+00 5.000000e-01 0.000000e+00
2.105263e+00 5.000000e-01 0.000000e+00
2.236842e+00 5.000000e-01 0.000000e+00
2.368421e+00 5.000000e-01 0.000000e+00
2.500000e+00 5.000000e-01 0.000000e+00
2.631579e+00 5.000000e-01 0.000000e+00
2.763158e+00 5.000000e-01 0.000000e+00
2.894737e+00 5.000000e-01 0.000000e+00
3.026316e+00 5.000000e-01 0.000000e+00
3.157895e+00 5.000000e-01 0.000000e+00
3.289474e+00 5.000000e-01 0.000000e+00
3.421053e+00 5.000000e-01 0.000000e+00
3.552632e+00 5.000000e-01 0.000000e+00
3.684211e+00 5.000000e-01 0.000000e+00
3.815789e+00 5.000000e-01 0.000000e+00
3.947368e+00 5.000000e-01 0.000000e+00
4.078947e+00 5.000000e-01 0.000000e+00
4.210526e+00 5.000000e-01 0.000000e+00
4.342105e+00 5.000000e-01 0.000000e+00
4.473684e+00 5.000000e-01 0.000000e+00
4.605263e+00 5.000000e-01 0.000000e+00
4.736842e+00 5.000000e-01 0.000000e+00
4.868421e+00 5.000000e-01 0.000000e+00
5.000000e+00 5.000000e-01 0.000000e+00
0.000000e+00 6.666667e-01 0.000000e+00
1.315789e-01 6.666667e-01 0.000000e+00
2.631579e-01 6.666667e-01 0.000000e+00
3.947368e-01 6.666667e-01 0.000000e+00
5.263158e-01 6.666667e-01 0.000000e+00
6.578947e-01 6.666667e-01 0.000000e+00
7.894737e-01 6.666667e-01 0.000000e+00
9.210526e-01 6.666667e-01 0.000000e+00
1.052632e+00 6.666667e-01 0.000000e+00
1.184211e+00 6.666667e-01 0.000000e+00
1.315789e+00 6.666667e-01 0.000000e+00
1.447368e+00 6.666667e-01 0.000000e+00
1.578947e+00 6.666667e-01 0.000000e+00
1.710526e+00 6.666667e-01 0.000000e+00
1.842105e+00 6.666667e-01 0.000000e+00
1.973684e+00 6.666667e-01 0.000000e+00
2.105263e+00 6.666667e-01 0.000000e+00
2.236842e+00 6.666667e-01 0.000000e+00
2.368421e+00 6.666667e-01 0.000000e+00
2.500000e+00 6.666667e-01 0.000000e+00
2.631579e+00 6.666667e-01 0.000000e+00
2.763158e+00 6.666667e-01 0.000000e+00
2.894737e+00 6.666667e-01 0.000000e+00
3.026316e+00 6.666667e-01 0.000000e+00
3.157895e+00 6.666667e-01 0.000000e+00
3.289474e+00 6.666667e-01 0.000000e+00
3.421053e+00 6.666667e-01 0.000000e+00
3.552632e+00 6.666667e-01 0.000000e+00
3.684211e+00 6.666667e-01 0.000000e+00
3.815789e+00 6.666667e-01 0.000000e+00
3.947368e+00 6.666667e-01 0.000000e+00
4.078947e+00 6.666667e-01 0.000000e+00
4.210526e+00 6.666667e-01 0.000000e+00
4.342105e+00 6.666667e-01 0.000000e+00
4.473684e+00 6.666667e-01 0.000000e+00
4.605263e+00 6.666667e-01 0.000000e+00
4.736842e+00 6.666667e-01 0.000000e+00
4.868421e+00 6.666667e-01 0.000000e+00
5.000000e+00 6.666667e-01 0.000000e+00
0.000000e+00 8.333333e-01 0.000000e+00
1.315789e-01 8.333333e-01 0.000000e+00
2.631579e-01 8.333333e-01 0.000000e+00
3.947368e-01 8.333333e-01 0.000000e+00
5.263158e-01 8.333333e-01 0.000000e+00
6.578947e-01 8.333333e-01 0.000000e+00
7.894737e-01 8.333333e-01 0.000000e+00
9.210526e-01 8.333333e-01 0.000000e+00
1.052632e+00 8.333333e-01 0.000000e+00
1.184211e+00 8.333333e-01 0.000000e+00
1.315789e+00 8.333333e-01 0.000000e+00
1.447368e+00 8.333333e-01 0.000000e+00
1.578947e+00 8.333333e-01 0.000000e+00
1.710526e+00 8.333333e-01 0.000000e+00
1.842105e+00 8.333333e-01 0.000000e+00
1.973684e+00 8.333333e-01 0.000000e+00
2.105263e+00 8.333333e-01 0.000000e+00
2.236842e+00 8.333333e-01 0.000000e+00
2.368421e+00 8.333333e-01 0.000000e+00
2.500000e+00 8.333333e-01 0.000000e+00
2.631579e+00 8.333333e-01 0.000000e+00
2.763158e+00 8.333333e-01 0.000000e+00
2.894737e+00 8.333333e-01 0.000000e+00
3.026316e+00 8.333333e-01 0.000000e+00
3.157895e+00 8.333333e-01 0.000000e+00
3.289474e+00 8.333333e-01 0.000000e+00
3.421053e+00 8.333333e-01 0.000000e+00
3.552632e+00 8.333333e-01 0.000000e+00
3.684211e+00 8.333333e-01 0.000000e+00
3.815789e+00 8.333333e-01 0.000000e+00
3.947368e+00 8.333333e-01 0.000000e+00
4.078947e+00 8.333333e-01 0.000000e+00
4.210526e+00 8.333333e-01 0.000000e+00
4.342105e+00 8.333333e-01 0.000000e+00
4.473684e+00 8.333333e-01 0.000000e+00
4.605263e+00 8.333333e-01 0.000000e+00
4.736842e+00 8.333333e-01 0.000000e+00
4.868421e+00 8.333333e-01 0.000000e+00
5.000000e+00 8.333333e-01 0.000000e+00
0.000000e+00 1.000000e+00 0.000000e+00
1.315789e-01 1.000000e+00 0.000000e+00
2.631579e-01 1.000000e+00 0.000000e+00
3.947368e-01 1.000000e+00 0.000000e+00
5.263158e-01 1.000000e+00 0.000000e+00
6.578947e-01 1.000000e+00 0.000000e+00
7.894737e-01 1.000000e+00 0.000000e+00
9.210526e-01 1.000000e+00 0.000000e+00
1.052632e+00 1.000000e+00 0.000000e+00
1.184211e+00 1.000000e+00 0.000000e+00
1.315789e+00 1.000000e+00 0.000000e+00
1.447368e+00 1.000000e+00 0.000000e+00
1.578947e+00 1.000000e+00 0.000000e+00
1.710526e+00 1.000000e+00 0.000000e+00
1.842105e+00 1.000000e+00 0.000000e+00
1.973684e+00 1.000000e+00 0.000000e+00
2.105263e+00 1.000000e+00 0.000000e+00
2.236842e+00 1.000000e+00 0.000000e+00
2.368421e+00 1.000000e+00 0.000000e+00
2.500000e+00 1.000000e+00 0.000000e+00
2.631579e+00 1.000000e+00 0.000000e+00
2.763158e+00 1.000000e+00 0.000000e+00
2.894737e+00 1.000000e+00 0.000000e+00
3.026316e+00 1.000000e+00 0.000000e+00
3.157895e+00 1.000000e+00 0.000000e+00
3.289474e+00 1.000000e+00 0.000000e+00
3.421053e+00 1.000000e+00 0.000000e+00
3.552632e+00 1.000000e+00 0.000000e+00
3.684211e+00 1.000000e+00 0.000000e+00
3.815789e+00 1.000000e+00 0.000000e+00
3.947368e+00 1.000000e+00 0.000000e+00
4.078947e+00 1.000000e+00 0.000000e+00
4.210526e+00 1.000000e+00 0.000000e+00
4.342105e+00 1.000000e+00 0.000000e+00
4.473684e+00 1.000000e+00 0.000000e+00
4.605263e+00 1.000000e+00 0.000000e+00
4.736842e+00 1.000000e+00 0.000000e+00
4.868421e+00 1.000000e+00 0.000000e+00
5.000000e+00 1.000000e+00 0.000000e+00
</DataArray>
</Points>
<PointData>
<DataArray Name="Velocity" type="Float64" format="ascii" NumberOfComponents="3">
0.000000e+00 0.000000e+00 0
0.000000e+00 0.000000e+00 0
0.000000e+00 0.000000e+00 0
-8.020147e-17 0.000000e+00 0
0.000000e+00 0.000000e+00 0
0.000000e+00 0.000000e+00 0
-1.605112e-16 0.000000e+00 0
0.000000e+00 0.000000e+00 0
0.000000e+00 0.000000e+00 0
0.000000e+00 0.000000e+00 0
0.000000e+00 0.000000e+00 0
0.000000e+00 0.000000e+00 0
1.223301e-16 0.000000e+00 0
0.000000e+00 0.000000e+00 0
0.000000e+00 0.000000e+00 0
0.000000e+00 0.000000e+00 0
0.000000e+00 0.000000e+00 0
0.000000e+00 0.000000e+00 0
0.000000e+00 0.000000e+00 0
0.000000e+00 0.000000e+00 0
0.000000e+00 0.000000e+00 0
0.000000e+00 0.000000e+00 0
0.000000e+00 0.000000e+00 0
0.000000e+00 0.000000e+00 0
0.000000e+00 0.000000e+00 0
0.000000e+00 0.000000e+00 0
0.000000e+00 0.000000e+00 0
0.000000e+00 0.000000e+00 0
0.000000e+00 0.000000e+00 0
0.000000e+00 0.000000e+00 0
0.000000e+00 0.000000e+00 0
0.000000e+00 0.000000e+00 0
0.000000e+00 0.000000e+00 0
0.000000e+00 0.000000e+00 0
0.000000e+00 0.000000e+00 0
0.000000e+00 0.000000e+00 0
0.000000e+00 0.000000e+00 0
0.000000e+00 0.000000e+00 0
0.000000e+00 0.000000e+00 0
1.319444e+01 0.000000e+00 0
1.319444e+01 5.724580e-06 0
1.319441e+01 2.502079e-05 0
1.319436e+01 4.759196e-05 0
1.319429e+01 7.052076e-05 0
1.319421e+01 9.273963e-05 0
1.319411e+01 1.135201e-04 0
1.319399e+01 1.323783e-04 0
1.319386e+01 1.492265e-04 0
1.319372e+01 1.642036e-04 0
1.319357e+01 1.774208e-04 0
1.319340e+01 1.889051e-04 0
1.319323e+01 1.986778e-04 0
1.319306e+01 2.068024e-04 0
1.319287e+01 2.133633e-04 0
1.319269e+01 2.184310e-04 0
1.319250e+01 2.220606e-04 0
1.319230e+01 2.243111e-04 0
1.319211e+01 2.252531e-04 0
1.319192e+01 2.249578e-04 0
1.319172e+01 2.234866e-04 0
1.319153e+01 2.208909e-04 0
1.319134e+01 2.172163e-04 0
1.319116e+01 2.125057e-04 0
1.319098e+01 2.068015e-04 0
1.319080e+01 2.001477e-04 0
1.319063e+01 1.925890e-04 0
1.319047e+01 1.841706e-04 0
1.319031e+01 1.749388e-04 0
1.319016e+01 1.649436e-04 0
1.319002e+01 1.542436e-04 0
1.318989e+01 1.429142e-04 0
1.318976e+01 1.310571e-04 0
1.318965e+01 1.188087e-04 0
1.318955e+01 1.063116e-04 0
1.318945e+01 9.362923e-05 0
1.318937e+01 7.852670e-05 0
1.318929e+01 7.447676e-05 0
1.318929e+01 7.914154e-05 0
2.152778e+01 0.000000e+00 0
2.152776e+01 4.630562e-05 0
2.152772e+01 9.517558e-05 0
2.152765e+01 1.440189e-04 0
2.152757e+01 1.910494e-04 0
2.152748e+01 2.351860e-04 0
2.152736e+01 2.756847e-04 0
2.152724e+01 3.122902e-04 0
2.152710e+01 3.450720e-04 0
2.152696e+01 3.741801e-04 0
2.152680e+01 3.997241e-04 0
2.152664e+01 4.217933e-04 0
2.152647e+01 4.405068e-04 0
2.152629e+01 4.560190e-04 0
2.152611e+01 4.684815e-04 0
2.152593e+01 4.780187e-04 0
2.152574e+01 4.847425e-04 0
2.152556e+01 4.887797e-04 0
2.152537e+01 4.902719e-04 0
2.152518e+01 4.893522e-04 0
2.152499e+01 4.861304e-04 0
2.152481e+01 4.806991e-04 0
2.152463e+01 4.731460e-04 0
2.152445e+01 4.635590e-04 0
2.152427e+01 4.520269e-04 0
2.152410e+01 4.386374e-04 0
2.152393e+01 4.234775e-04 0
2.152377e+01 4.066339e-04 0
2.152362e+01 3.881958e-04 0
2.152347e+01 3.682588e-04 0
2.152333e+01 3.469341e-04 0
2.152319e+01 3.243647e-04 0
2.152307e+01 3.007513e-04 0
2.152295e+01 2.763943e-04 0
2.152284e+01 2.517569e-04 0
2.152274e+01 2.275302e-04 0
2.152265e+01 2.051805e-04 0
2.152257e+01 1.858028e-04 0
2.152257e+01 1.768664e-04 0
2.430556e+01 0.000000e+00 0
2.430554e+01 8.129579e-05 0
2.430551e+01 1.580798e-04 0
2.430546e+01 2.301678e-04 0
2.430540e+01 2.969238e-04 0
2.430532e+01 3.579967e-04 0
2.430524e+01 4.132957e-04 0
2.430515e+01 4.630188e-04 0
2.430506e+01 5.074268e-04 0
2.430496e+01 5.467327e-04 0
2.430485e+01 5.811106e-04 0
2.430474e+01 6.107335e-04 0
2.430463e+01 6.357959e-04 0
2.430451e+01 6.565032e-04 0
2.430439e+01 6.730504e-04 0
2.430427e+01 6.856185e-04 0
2.430415e+01 6.943872e-04 0
2.430403e+01 6.995377e-04 0
2.430390e+01 7.012414e-04 0
2.430378e+01 6.996518e-04 0
2.430366e+01 6.949107e-04 0
2.430354e+01 6.871545e-04 0
2.430342e+01 6.765145e-04 0
2.430330e+01 6.631155e-04 0
2.430318e+01 6.470767e-04 0
2.430307e+01 6.285149e-04 0
2.430296e+01 6.075460e-04 0
2.430286e+01 5.842843e-04 0
2.430275e+01 5.588426e-04 0
2.430265e+01 5.313350e-04 0
2.430256e+01 5.018864e-04 0
2.430247e+01 4.706498e-04 0
2.430239e+01 4.378418e-04 0
2.430231e+01 4.038157e-04 0
2.430223e+01 3.692244e-04 0
2.430217e+01 3.353336e-04 0
2.430211e+01 3.054823e-04 0
2.430206e+01 2.726647e-04 0
2.430206e+01 2.531373e-04 0
2.152778e+01 0.000000e+00 0
2.152777e+01 1.063371e-04 0
2.152775e+01 2.010598e-04 0
2.152773e+01 2.856949e-04 0
2.152771e+01 3.615058e-04 0
2.152769e+01 4.294544e-04 0
2.152768e+01 4.903512e-04 0
2.152766e+01 5.448270e-04 0
2.152765e+01 5.932891e-04 0
2.152764e+01 6.360129e-04 0
2.152763e+01 6.732571e-04 0
2.152763e+01 7.052884e-04 0
2.152762e+01 7.323512e-04 0
2.152762e+01 7.546578e-04 0
2.152761e+01 7.724103e-04 0
2.152761e+01 7.858174e-04 0
2.152761e+01 7.950888e-04 0
2.152761e+01 8.004198e-04 0
2.152760e+01 8.019855e-04 0
2.152760e+01 7.999473e-04 0
2.152760e+01 7.944601e-04 0
2.152760e+01 7.856739e-04 0
2.152760e+01 7.737328e-04 0
2.152760e+01 7.587748e-04 0
2.152760e+01 7.409339e-04 0
2.152759e+01 7.203397e-04 0
2.152759e+01 6.971164e-04 0
2.152759e+01 6.713808e-04 0
2.152758e+01 6.432400e-04 0
2.152757e+01 6.127900e-04 0
2.152757e+01 5.801138e-04 0
2.152756e+01 5.452809e-04 0
2.152755e+01 5.083502e-04 0
2.152754e+01 4.693896e-04 0
2.152754e+01 4.285520e-04 0
2.152753e+01 3.862741e-04 0
2.152753e+01 3.448690e-04 0
2.152754e+01 2.934172e-04 0
2.152754e+01 2.619525e-04 0
1.319444e+01 0.000000e+00 0
1.319447e+01 1.155139e-04 0
1.319453e+01 2.049748e-04 0
1.319463e+01 2.794314e-04 0
1.319475e+01 3.437922e-04 0
1.319491e+01 4.004895e-04 0
1.319509e+01 4.508772e-04 0
1.319530e+01 4.957052e-04 0
1.319552e+01 5.354064e-04 0
1.319577e+01 5.703024e-04 0
1.319603e+01 6.006787e-04 0
1.319630e+01 6.267736e-04 0
1.319658e+01 6.487786e-04 0
1.319688e+01 6.668693e-04 0
1.319718e+01 6.812258e-04 0
1.319749e+01 6.920257e-04 0
1.319780e+01 6.994326e-04 0
1.319811e+01 7.035969e-04 0
1.319843e+01 7.046616e-04 0
1.319875e+01 7.027645e-04 0
1.319906e+01 6.980381e-04 0
1.319937e+01 6.906091e-04 0
1.319968e+01 6.805986e-04 0
1.319998e+01 6.681218e-04 0
1.320028e+01 6.532882e-04 0
1.320057e+01 6.362010e-04 0
1.320085e+01 6.169563e-04 0
1.320112e+01 5.956404e-04 0
1.320138e+01 5.723250e-04 0
1.320163e+01 5.470604e-04 0
1.320186e+01 5.198597e-04 0
1.320209e+01 4.906683e-04 0
1.320229e+01 4.593019e-04 0
1.320249e+01 4.253180e-04 0
1.320266e+01 3.877436e-04 0
1.320283e+01 3.444736e-04 0
1.320297e+01 2.910507e-04 0
1.320310e+01 2.167985e-04 0
1.320310e+01 1.725504e-04 0
0.000000e+00 0.000000e+00 0
0.000000e+00 0.000000e+00 0
0.000000e+00 0.000000e+00 0
8.004430e-17 0.000000e+00 0
0.000000e+00 0.000000e+00 0
0.000000e+00 0.000000e+00 0
1.596414e-16 0.000000e+00 0
0.000000e+00 0.000000e+00 0
0.000000e+00 0.000000e+00 0
0.000000e+00 0.000000e+00 0
0.000000e+00 0.000000e+00 0
0.000000e+00 0.000000e+00 0
-1.273095e-16 0.000000e+00 0
0.000000e+00 0.000000e+00 0
0.000000e+00 0.000000e+00 0
0.000000e+00 0.000000e+00 0
0.000000e+00 0.000000e+00 0
0.000000e+00 0.000000e+00 0
0.000000e+00 0.000000e+00 0
0.000000e+00 0.000000e+00 0
0.000000e+00 0.000000e+00 0
0.000000e+00 0.000000e+00 0
0.000000e+00 0.000000e+00 0
0.000000e+00 0.000000e+00 0
0.000000e+00 0.000000e+00 0
0.000000e+00 0.000000e+00 0
0.000000e+00 0.000000e+00 0
0.000000e+00 0.000000e+00 0
0.000000e+00 0.000000e+00 0
0.000000e+00 0.000000e+00 0
0.000000e+00 0.000000e+00 0
0.000000e+00 0.000000e+00 0
0.000000e+00 0.000000e+00 0
0.000000e+00 0.000000e+00 0
0.000000e+00 0.000000e+00 0
0.000000e+00 0.000000e+00 0
0.000000e+00 0.000000e+00 0
0.000000e+00 0.000000e+00 0
0.000000e+00 0.000000e+00 0
</DataArray>
<DataArray Name="Pressure" type="Float64" format="ascii">
4.045044e-02 3.947355e-02 3.752635e-02 3.564725e-02 3.392238e-02 3.236427e-02 3.092964e-02 2.959120e-02 2.835187e-02 2.721390e-02 2.616466e-02 2.518769e-02 2.427202e-02 2.341005e-02 2.259369e-02 2.181419e-02 2.106308e-02 2.033237e-02 1.961439e-02 1.890190e-02 1.818797e-02 1.746594e-02 1.672929e-02 1.597188e-02 1.518796e-02 1.437207e-02 1.351898e-02 1.262368e-02 1.168138e-02 1.068757e-02 9.637970e-03 8.528643e-03 7.356071e-03 6.117297e-03 4.810128e-03 3.433175e-03 1.985218e-03 3.226712e-04 -1.494921e-04 
4.049653e-02 3.942247e-02 3.734868e-02 3.544471e-02 3.373348e-02 3.218758e-02 3.075919e-02 2.943168e-02 2.820989e-02 2.708996e-02 2.605587e-02 2.509254e-02 2.419062e-02 2.334242e-02 2.253930e-02 2.177232e-02 2.103311e-02 2.031374e-02 1.960664e-02 1.890460e-02 1.820068e-02 1.748816e-02 1.676055e-02 1.601176e-02 1.523608e-02 1.442807e-02 1.358249e-02 1.269433e-02 1.175880e-02 1.077133e-02 9.727587e-03 8.623483e-03 7.455272e-03 6.219711e-03 4.914595e-03 3.540119e-03 2.106756e-03 3.528540e-04 0.000000e+00 
3.993346e-02 3.873024e-02 3.649444e-02 3.457896e-02 3.291634e-02 3.141943e-02 3.003965e-02 2.877430e-02 2.762417e-02 2.657331e-02 2.560214e-02 2.469884e-02 2.385602e-02 2.306525e-02 2.231700e-02 2.160231e-02 2.091297e-02 2.024123e-02 1.957967e-02 1.892121e-02 1.825893e-02 1.758612e-02 1.689639e-02 1.618380e-02 1.544273e-02 1.466777e-02 1.385370e-02 1.299552e-02 1.208840e-02 1.112764e-02 1.010859e-02 9.026568e-03 7.876775e-03 6.654275e-03 5.354580e-03 3.975988e-03 2.530882e-03 6.400205e-04 0.000000e+00 
3.803778e-02 3.683351e-02 3.463721e-02 3.282120e-02 3.127389e-02 2.989298e-02 2.864109e-02 2.751490e-02 2.650231e-02 2.558049e-02 2.473205e-02 2.394797e-02 2.322049e-02 2.254012e-02 2.189727e-02 2.128330e-02 2.069021e-02 2.011038e-02 1.953663e-02 1.896205e-02 1.837987e-02 1.778356e-02 1.716697e-02 1.652431e-02 1.585008e-02 1.513892e-02 1.438573e-02 1.358555e-02 1.273356e-02 1.182488e-02 1.085445e-02 9.816669e-03 8.704876e-03 7.510488e-03 6.221898e-03 4.823370e-03 3.295146e-03 1.391834e-03 0.000000e+00 
3.522242e-02 3.413295e-02 3.217466e-02 3.058544e-02 2.923248e-02 2.803350e-02 2.696434e-02 2.601564e-02 2.516841e-02 2.440174e-02 2.370247e-02 2.306233e-02 2.247256e-02 2.192353e-02 2.140616e-02 2.091213e-02 2.043360e-02 1.996321e-02 1.949401e-02 1.901928e-02 1.853247e-02 1.802729e-02 1.749782e-02 1.693845e-02 1.634379e-02 1.570866e-02 1.502809e-02 1.429730e-02 1.351156e-02 1.266611e-02 1.175583e-02 1.077484e-02 9.715565e-03 8.567014e-03 7.311450e-03 5.917629e-03 4.328156e-03 2.574520e-03 0.000000e+00 
3.260004e-02 3.173343e-02 3.015309e-02 2.882677e-02 2.766885e-02 2.663640e-02 2.571848e-02 2.490614e-02 2.418294e-02 2.353305e-02 2.294574e-02 2.241258e-02 2.192464e-02 2.147274e-02 2.104816e-02 2.064275e-02 2.024888e-02 1.985940e-02 1.946749e-02 1.906656e-02 1.865021e-02 1.821236e-02 1.774724e-02 1.724936e-02 1.671346e-02 1.613451e-02 1.550770e-02 1.482842e-02 1.409220e-02 1.329456e-02 1.243089e-02 1.149605e-02 1.048372e-02 9.385039e-03 8.185670e-03 6.859400e-03 5.354840e-03 3.870708e-03 0.000000e+00 
3.150649e-02 3.077889e-02 2.941338e-02 2.820931e-02 2.713245e-02 2.616378e-02 2.529992e-02 2.453434e-02 2.385326e-02 2.324297e-02 2.269344e-02 2.219616e-02 2.174234e-02 2.132296e-02 2.092943e-02 2.055370e-02 2.018819e-02 1.982580e-02 1.945976e-02 1.908352e-02 1.869074e-02 1.827541e-02 1.783180e-02 1.735448e-02 1.683823e-02 1.627807e-02 1.566927e-02 1.500730e-02 1.428780e-02 1.350648e-02 1.265904e-02 1.174093e-02 1.074698e-02 9.670600e-03 8.502140e-03 7.225369e-03 5.810186e-03 4.479040e-03 9.737555e-04 
</DataArray>
<DataArray Name="Stream" type="Float64" format="ascii">
0.000000e+00 0.000000e+00 0.000000e+00 0.000000e+00 0.000000e+00 0.000000e+00 0.000000e+00 0.000000e+00 0.000000e+00 0.000000e+00 0.000000e+00 0.000000e+00 0.000000e+00 0.000000e+00 0.000000e+00 0.000000e+00 0.000000e+00 0.000000e+00 0.000000e+00 0.000000e+00 0.000000e+00 0.000000e+00 0.000000e+00 0.000000e+00 0.000000e+00 0.000000e+00 0.000000e+00 0.000000e+00 0.000000e+00 0.000000e+00 0.000000e+00 0.000000e+00 0.000000e+00 0.000000e+00 0.000000e+00 0.000000e+00 0.000000e+00 0.000000e+00 0.000000e+00 
0.000000e+00 1.273148e+00 1.273147e+00 1.273142e+00 1.273134e+00 1.273123e+00 1.273110e+00 1.273093e+00 1.273075e+00 1.273054e+00 1.273032e+00 1.273008e+00 1.272982e+00 1.272955e+00 1.272928e+00 1.272899e+00 1.272870e+00 1.272841e+00 1.272811e+00 1.272781e+00 1.272752e+00 1.272723e+00 1.272694e+00 1.272665e+00 1.272638e+00 1.272611e+00 1.272585e+00 1.272560e+00 1.272537e+00 1.272514e+00 1.272493e+00 1.272474e+00 1.272456e+00 1.272439e+00 1.272424e+00 1.272411e+00 1.272400e+00 1.272391e+00 1.272391e+00 
0.000000e+00 4.398145e+00 4.398136e+00 4.398120e+00 4.398098e+00 4.398070e+00 4.398036e+00 4.397997e+00 4.397954e+00 4.397907e+00 4.397856e+00 4.397801e+00 4.397745e+00 4.397685e+00 4.397625e+00 4.397562e+00 4.397499e+00 4.397435e+00 4.397370e+00 4.397306e+00 4.397241e+00 4.397178e+00 4.397115e+00 4.397053e+00 4.396993e+00 4.396934e+00 4.396877e+00 4.396823e+00 4.396770e+00 4.396721e+00 4.396673e+00 4.396629e+00 4.396588e+00 4.396550e+00 4.396515e+00 4.396484e+00 4.396456e+00 4.396430e+00 4.396430e+00 
0.000000e+00 8.449069e+00 8.449053e+00 8.449027e+00 8.448992e+00 8.448949e+00 8.448898e+00 8.448840e+00 8.448776e+00 8.448707e+00 8.448632e+00 8.448554e+00 8.448471e+00 8.448386e+00 8.448299e+00 8.448209e+00 8.448118e+00 8.448026e+00 8.447934e+00 8.447842e+00 8.447750e+00 8.447659e+00 8.447569e+00 8.447481e+00 8.447395e+00 8.447311e+00 8.447229e+00 8.447151e+00 8.447076e+00 8.447004e+00 8.446936e+00 8.446872e+00 8.446812e+00 8.446756e+00 8.446706e+00 8.446659e+00 8.446617e+00 8.446579e+00 8.446579e+00 
0.000000e+00 1.249999e+01 1.249997e+01 1.249994e+01 1.249990e+01 1.249984e+01 1.249978e+01 1.249972e+01 1.249964e+01 1.249956e+01 1.249947e+01 1.249938e+01 1.249929e+01 1.249919e+01 1.249909e+01 1.249899e+01 1.249888e+01 1.249878e+01 1.249867e+01 1.249857e+01 1.249846e+01 1.249836e+01 1.249825e+01 1.249815e+01 1.249805e+01 1.249796e+01 1.249786e+01 1.249777e+01 1.249769e+01 1.249761e+01 1.249753e+01 1.249745e+01 1.249738e+01 1.249732e+01 1.249726e+01 1.249721e+01 1.249716e+01 1.249712e+01 1.249712e+01 
0.000000e+00 1.562499e+01 1.562497e+01 1.562494e+01 1.562490e+01 1.562485e+01 1.562479e+01 1.562473e+01 1.562466e+01 1.562459e+01 1.562451e+01 1.562443e+01 1.562435e+01 1.562426e+01 1.562417e+01 1.562408e+01 1.562399e+01 1.562390e+01 1.562380e+01 1.562371e+01 1.562362e+01 1.562353e+01 1.562344e+01 1.562335e+01 1.562326e+01 1.562318e+01 1.562309e+01 1.562301e+01 1.562294e+01 1.562286e+01 1.562279e+01 1.562273e+01 1.562266e+01 1.562260e+01 1.562255e+01 1.562250e+01 1.562246e+01 1.562243e+01 1.562243e+01 
0.000000e+00 1.689815e+01 1.689815e+01 1.689815e+01 1.689815e+01 1.689815e+01 1.689815e+01 1.689815e+01 1.689815e+01 1.689815e+01 1.689815e+01 1.689815e+01 1.689815e+01 1.689815e+01 1.689815e+01 1.689815e+01 1.689815e+01 1.689815e+01 1.689815e+01 1.689815e+01 1.689815e+01 1.689815e+01 1.689815e+01 1.689815e+01 1.689815e+01 1.689815e+01 1.689815e+01 1.689815e+01 1.689815e+01 1.689815e+01 1.689815e+01 1.689815e+01 1.689815e+01 1.689815e+01 1.689815e+01 1.689815e+01 1.689815e+01 1.689815e+01 1.689815e+01 
</DataArray>
<DataArray Name="Vorticity" type="Float64" format="ascii">
9.166667e+01 9.166668e+01 9.166656e+01 9.166622e+01 9.166566e+01 9.166488e+01 9.166390e+01 9.166273e+01 9.166139e+01 9.165990e+01 9.165828e+01 9.165654e+01 9.165470e+01 9.165278e+01 9.165078e+01 9.164873e+01 9.164664e+01 9.164453e+01 9.164239e+01 9.164026e+01 9.163813e+01 9.163602e+01 9.163395e+01 9.163191e+01 9.162992e+01 9.162799e+01 9.162613e+01 9.162434e+01 9.162264e+01 9.162103e+01 9.161951e+01 9.161810e+01 9.161681e+01 9.161562e+01 9.161455e+01 9.161361e+01 9.161278e+01 9.161212e+01 9.161212e+01 
6.666671e+01 6.666642e+01 6.666617e+01 6.666593e+01 6.666570e+01 6.666547e+01 6.666525e+01 6.666504e+01 6.666483e+01 6.666463e+01 6.666443e+01 6.666423e+01 6.666403e+01 6.666384e+01 6.666366e+01 6.666347e+01 6.666329e+01 6.666311e+01 6.666293e+01 6.666275e+01 6.666257e+01 6.666239e+01 6.666222e+01 6.666204e+01 6.666187e+01 6.666169e+01 6.666152e+01 6.666134e+01 6.666117e+01 6.666099e+01 6.666082e+01 6.666064e+01 6.666046e+01 6.666028e+01 6.666010e+01 6.665991e+01 6.665975e+01 6.665929e+01 6.665936e+01 
3.333300e+01 3.333299e+01 3.333300e+01 3.333306e+01 3.333314e+01 3.333324e+01 3.333338e+01 3.333353e+01 3.333371e+01 3.333391e+01 3.333412e+01 3.333435e+01 3.333459e+01 3.333484e+01 3.333510e+01 3.333536e+01 3.333563e+01 3.333590e+01 3.333618e+01 3.333645e+01 3.333673e+01 3.333700e+01 3.333726e+01 3.333753e+01 3.333778e+01 3.333803e+01 3.333827e+01 3.333850e+01 3.333872e+01 3.333892e+01 3.333912e+01 3.333930e+01 3.333947e+01 3.333962e+01 3.333976e+01 3.333988e+01 3.333998e+01 3.334008e+01 3.333995e+01 
-6.359441e-04 -5.781498e-04 -4.747485e-04 -3.133242e-04 -1.005539e-04 1.625259e-04 4.715652e-04 8.210385e-04 1.206116e-03 1.623373e-03 2.069660e-03 2.541024e-03 3.033247e-03 3.542643e-03 4.065940e-03 4.599868e-03 5.141183e-03 5.686941e-03 6.234498e-03 6.781251e-03 7.324562e-03 7.861902e-03 8.390937e-03 8.909470e-03 9.415354e-03 9.906488e-03 1.038086e-02 1.083658e-02 1.127188e-02 1.168508e-02 1.207464e-02 1.243913e-02 1.277735e-02 1.308842e-02 1.337187e-02 1.362857e-02 1.384917e-02 1.425074e-02 1.395392e-02 
-3.333419e+01 -3.333407e+01 -3.333386e+01 -3.333355e+01 -3.333314e+01 -3.333265e+01 -3.333208e+01 -3.333145e+01 -3.333075e+01 -3.333000e+01 -3.332920e+01 -3.332836e+01 -3.332749e+01 -3.332658e+01 -3.332565e+01 -3.332471e+01 -3.332375e+01 -3.332279e+01 -3.332182e+01 -3.332086e+01 -3.331990e+01 -3.331895e+01 -3.331802e+01 -3.331710e+01 -3.331621e+01 -3.331534e+01 -3.331450e+01 -3.331370e+01 -3.331292e+01 -3.331219e+01 -3.331150e+01 -3.331084e+01 -3.331024e+01 -3.330968e+01 -3.330917e+01 -3.330871e+01 -3.330831e+01 -3.330767e+01 -3.330815e+01 
-6.666767e+01 -6.666706e+01 -6.666609e+01 -6.666485e+01 -6.666335e+01 -6.666164e+01 -6.665974e+01 -6.665766e+01 -6.665543e+01 -6.665306e+01 -6.665058e+01 -6.664800e+01 -6.664532e+01 -6.664258e+01 -6.663978e+01 -6.663694e+01 -6.663406e+01 -6.663117e+01 -6.662827e+01 -6.662537e+01 -6.662249e+01 -6.661963e+01 -6.661681e+01 -6.661403e+01 -6.661130e+01 -6.660863e+01 -6.660604e+01 -6.660352e+01 -6.660108e+01 -6.659874e+01 -6.659649e+01 -6.659435e+01 -6.659233e+01 -6.659043e+01 -6.658866e+01 -6.658705e+01 -6.658564e+01 -6.658449e+01 -6.658516e+01 
-9.166667e+01 -9.166730e+01 -9.166885e+01 -9.167118e+01 -9.167415e+01 -9.167769e+01 -9.168174e+01 -9.168623e+01 -9.169113e+01 -9.169638e+01 -9.170194e+01 -9.170776e+01 -9.171381e+01 -9.172005e+01 -9.172645e+01 -9.173296e+01 -9.173956e+01 -9.174621e+01 -9.175289e+01 -9.175956e+01 -9.176621e+01 -9.177279e+01 -9.177929e+01 -9.178569e+01 -9.179195e+01 -9.179806e+01 -9.180400e+01 -9.180975e+01 -9.181529e+01 -9.182060e+01 -9.182566e+01 -9.183045e+01 -9.183495e+01 -9.183915e+01 -9.184301e+01 -9.184650e+01 -9.184954e+01 -9.185201e+01 -9.185201e+01 
</DataArray>
</PointData>
</Piece>
</StructuredGrid>
</VTKFile>
