<?xml version="1.0"?>
<VTKFile type="StructuredGrid">
<StructuredGrid WholeExtent="0 78 0 14 0 0 ">
<Piece Extent="0 78 0 14 0 0 ">
<Points>
<DataArray type="Float64" format="ascii" NumberOfComponents="3">
0.000000e+00 0.000000e+00 0.000000e+00
6.410256e-02 0.000000e+00 0.000000e+00
1.282051e-01 0.000000e+00 0.000000e+00
1.923077e-01 0.000000e+00 0.000000e+00
2.564103e-01 0.000000e+00 0.000000e+00
3.205128e-01 0.000000e+00 0.000000e+00
3.846154e-01 0.000000e+00 0.000000e+00
4.487179e-01 0.000000e+00 0.000000e+00
5.128205e-01 0.000000e+00 0.000000e+00
5.769231e-01 0.000000e+00 0.000000e+00
6.410256e-01 0.000000e+00 0.000000e+00
7.051282e-01 0.000000e+00 0.000000e+00
7.692308e-01 0.000000e+00 0.000000e+00
8.333333e-01 0.000000e+00 0.000000e+00
8.974359e-01 0.000000e+00 0.000000e+00
9.615385e-01 0.000000e+00 0.000000e+00
1.025641e+00 0.000000e+00 0.000000e+00
1.089744e+00 0.000000e+00 0.000000e+00
1.153846e+00 0.000000e+00 0.000000e+00
1.217949e+00 0.000000e+00 0.000000e+00
1.282051e+00 0.000000e+00 0.000000e+00
1.346154e+00 0.000000e+00 0.000000e+00
1.410256e+00 0.000000e+00 0.000000e+00
1.474359e+00 0.000000e+00 0.000000e+00
1.538462e+00 0.000000e+00 0.000000e+00
1.602564e+00 0.000000e+00 0.000000e+00
1.666667e+00 0.000000e+00 0.000000e+00
1.730769e+00 0.000000e+00 0.000000e+00
1.794872e+00 0.000000e+00 0.000000e+00
1.858974e+00 0.000000e+00 0.000000e+00
1.923077e+00 0.000000e+00 0.000000e+00
1.987179e+00 0.000000e+00 0.000000e+00
2.051282e+00 0.000000e+00 0.000000e+00
2.115385e+00 0.000000e+00 0.000000e+00
2.179487e+00 0.000000e+00 0.000000e+00
2.243590e+00 0.000000e+00 0.000000e+00
2.307692e+00 0.000000e+00 0.000000e+00
2.371795e+00 0.000000e+00 0.000000e+00
2.435897e+00 0.000000e+00 0.000000e+00
2.500000e+00 0.000000e+00 0.000000e+00
2.564103e+00 0.000000e+00 0.000000e+00
2.628205e+00 0.000000e+00 0.000000e+00
2.692308e+00 0.000000e+00 0.000000e+00
2.756410e+00 0.000000e+00 0.000000e+00
2.820513e+00 0.000000e+00 0.000000e+00
2.884615e+00 0.000000e+00 0.000000e+00
2.948718e+00 0.000000e+00 0.000000e+00
3.012821e+00 0.000000e+00 0.000000e+00
3.076923e+00 0.000000e+00 0.000000e+00
3.141026e+00 0.000000e+00 0.000000e+00
3.205128e+00 0.000000e+00 0.000000e+00
3.269231e+00 0.000000e+00 0.000000e+00
3.333333e+00 0.000000e+00 0.000000e+00
3.397436e+00 0.000000e+00 0.000000e+00
3.461538e+00 0.000000e+00 0.000000e+00
3.525641e+00 0.000000e+00 0.000000e+00
3.589744e+00 0.000000e+00 0.000000e+00
3.653846e+00 0.000000e+00 0.000000e+00
3.717949e+00 0.000000e+00 0.000000e+00
3.782051e+00 0.000000e+00 0.000000e+00
3.846154e+00 0.000000e+00 0.000000e+00
3.910256e+00 0.000000e+00 0.000000e+00
3.974359e+00 0.000000e+00 0.000000e+00
4.038462e+00 0.000000e+00 0.000000e+00
4.102564e+00 0.000000e+00 0.000000e+00
4.166667e+00 0.000000e+00 0.000000e+00
4.230769e+00 0.000000e+00 0.000000e+00
4.294872e+00 0.000000e+00 0.000000e+00
4.358974e+00 0.000000e+00 0.000000e+00
4.423077e+00 0.000000e+00 0.000000e+00
4.487179e+00 0.000000e+00 0.000000e+00
4.551282e+00 0.000000e+00 0.000000e+00
4.615385e+00 0.000000e+00 0.000000e+00
4.679487e+00 0.000000e+00 0.000000e+00
4.743590e+00 0.000000e+00 0.000000e+00
4.807692e+00 0.000000e+00 0.000000e+00
4.871795e+00 0.000000e+00 0.000000e+00
4.935897e+00 0.000000e+00 0.000000e+00
5.000000e+00 0.000000e+00 0.000000e+00
0.000000e+00 7.142857e-02 0.000000e+00
6.410256e-02 7.142857e-02 0.000000e+00
1.282051e-01 7.142857e-02 0.000000e+00
1.923077e-01 7.142857e-02 0.000000e+00
2.564103e-01 7.142857e-02 0.000000e+00
3.205128e-01 7.142857e-02 0.000000e+00
3.846154e-01 7.142857e-02 0.000000e+00
4.487179e-01 7.142857e-02 0.000000e+00
5.128205e-01 7.142857e-02 0.000000e+00
5.769231e-01 7.142857e-02 0.000000e+00
6.410256e-01 7.142857e-02 0.000000e+00
7.051282e-01 7.142857e-02 0.000000e+00
7.692308e-01 7.142857e-02 0.000000e+00
8.333333e-01 7.142857e-02 0.000000e+00
8.974359e-01 7.142857e-02 0.000000e+00
9.615385e-01 7.142857e-02 0.000000e+00
1.025641e+00 7.142857e-02 0.000000e+00
1.089744e+00 7.142857e-02 0.000000e+00
1.153846e+00 7.142857e-02 0.000000e+00
1.217949e+00 7.142857e-02 0.000000e+00
1.282051e+00 7.142857e-02 0.000000e+00
1.346154e+00 7.142857e-02 0.000000e+00
1.410256e+00 7.142857e-02 0.000000e+00
1.474359e+00 7.142857e-02 0.000000e+00
1.538462e+00 7.142857e-02 0.000000e+00
1.602564e+00 7.142857e-02 0.000000e+00
1.666667e+00 7.142857e-02 0.000000e+00
1.730769e+00 7.142857e-02 0.000000e+00
1.794872e+00 7.142857e-02 0.000000e+00
1.858974e+00 7.142857e-02 0.000000e+00
1.923077e+00 7.142857e-02 0.000000e+00
1.987179e+00 7.142857e-02 0.000000e+00
2.051282e+00 7.142857e-02 0.000000e+00
2.115385e+00 7.142857e-02 0.000000e+00
2.179487e+00 7.142857e-02 0.000000e+00
2.243590e+00 7.142857e-02 0.000000e+00
2.307692e+00 7.142857e-02 0.000000e+00
2.371795e+00 7.142857e-02 0.000000e+00
2.435897e+00 7.142857e-02 0.000000e+00
2.500000e+00 7.142857e-02 0.000000e+00
2.564103e+00 7.142857e-02 0.000000e+00
2.628205e+00 7.142857e-02 0.000000e+00
2.692308e+00 7.142857e-02 0.000000e+00
2.756410e+00 7.142857e-02 0.000000e+00
2.820513e+00 7.142857e-02 0.000000e+00
2.884615e+00 7.142857e-02 0.000000e+00
2.948718e+00 7.142857e-02 0.000000e+00
3.012821e+00 7.142857e-02 0.000000e+00
3.076923e+00 7.142857e-02 0.000000e+00
3.141026e+00 7.142857e-02 0.000000e+00
3.205128e+00 7.142857e-02 0.000000e+00
3.269231e+00 7.142857e-02 0.000000e+00
3.333333e+00 7.142857e-02 0.000000e+00
3.397436e+00 7.142857e-02 0.000000e+00
3.461538e+00 7.142857e-02 0.000000e+00
3.525641e+00 7.142857e-02 0.000000e+00
3.589744e+00 7.142857e-02 0.000000e+00
3.653846e+00 7.142857e-02 0.000000e+00
3.717949e+00 7.142857e-02 0.000000e+00
3.782051e+00 7.142857e-02 0.000000e+00
3.846154e+00 7.142857e-02 0.000000e+00
3.910256e+00 7.142857e-02 0.000000e+00
3.974359e+00 7.142857e-02 0.000000e+00
4.038462e+00 7.142857e-02 0.000000e+00
4.102564e+00 7.142857e-02 0.000000e+00
4.166667e+00 7.142857e-02 0.000000e+00
4.230769e+00 7.142857e-02 0.000000e+00
4.294872e+00 7.142857e-02 0.000000e+00
4.358974e+00 7.142857e-02 0.000000e+00
4.423077e+00 7.142857e-02 0.000000e+00
4.487179e+00 7.142857e-02 0.000000e+00
4.551282e+00 7.142857e-02 0.000000e+00
4.615385e+00 7.142857e-02 0.000000e+00
4.679487e+00 7.142857e-02 0.000000e+00
4.743590e+00 7.142857e-02 0.000000e+00
4.807692e+00 7.142857e-02 0.000000e+00
4.871795e+00 7.142857e-02 0.000000e+00
4.935897e+00 7.142857e-02 0.000000e+00
5.000000e+00 7.142857e-02 0.000000e+00
0.000000e+00 1.428571e-01 0.000000e+00
6.410256e-02 1.428571e-01 0.000000e+00
1.282051e-01 1.428571e-01 0.000000e+00
1.923077e-01 1.428571e-01 0.000000e+00
2.564103e-01 1.428571e-01 0.000000e+00
3.205128e-01 1.428571e-01 0.000000e+00
3.846154e-01 1.428571e-01 0.000000e+00
4.487179e-01 1.428571e-01 0.000000e+00
5.128205e-01 1.428571e-01 0.000000e+00
5.769231e-01 1.428571e-01 0.000000e+00
6.410256e-01 1.428571e-01 0.000000e+00
7.051282e-01 1.428571e-01 0.000000e+00
7.692308e-01 1.428571e-01 0.000000e+00
8.333333e-01 1.428571e-01 0.000000e+00
8.974359e-01 1.428571e-01 0.000000e+00
9.615385e-01 1.428571e-01 0.000000e+00
1.025641e+00 1.428571e-01 0.000000e+00
1.089744e+00 1.428571e-01 0.000000e+00
1.153846e+00 1.428571e-01 0.000000e+00
1.217949e+00 1.428571e-01 0.000000e+00
1.282051e+00 1.428571e-01 0.000000e+00
1.346154e+00 1.428571e-01 0.000000e+00
1.410256e+00 1.428571e-01 0.000000e+00
1.474359e+00 1.428571e-01 0.000000e+00
1.538462e+00 1.428571e-01 0.000000e+00
1.602564e+00 1.428571e-01 0.000000e+00
1.666667e+00 1.428571e-01 0.000000e+00
1.730769e+00 1.428571e-01 0.000000e+00
1.794872e+00 1.428571e-01 0.000000e+00
1.858974e+00 1.428571e-01 0.000000e+00
1.923077e+00 1.428571e-01 0.000000e+00
1.987179e+00 1.428571e-01 0.000000e+00
2.051282e+00 1.428571e-01 0.000000e+00
2.115385e+00 1.428571e-01 0.000000e+00
2.179487e+00 1.428571e-01 0.000000e+00
2.243590e+00 1.428571e-01 0.000000e+00
2.307692e+00 1.428571e-01 0.000000e+00
2.371795e+00 1.428571e-01 0.000000e+00
2.435897e+00 1.428571e-01 0.000000e+00
2.500000e+00 1.428571e-01 0.000000e+00
2.564103e+00 1.428571e-01 0.000000e+00
2.628205e+00 1.428571e-01 0.000000e+00
2.692308e+00 1.428571e-01 0.000000e+00
2.756410e+00 1.428571e-01 0.000000e+00
2.820513e+00 1.428571e-01 0.000000e+00
2.884615e+00 1.428571e-01 0.000000e+00
2.948718e+00 1.428571e-01 0.000000e+00
3.012821e+00 1.428571e-01 0.000000e+00
3.076923e+00 1.428571e-01 0.000000e+00
3.141026e+00 1.428571e-01 0.000000e+00
3.205128e+00 1.428571e-01 0.000000e+00
3.269231e+00 1.428571e-01 0.000000e+00
3.333333e+00 1.428571e-01 0.000000e+00
3.397436e+00 1.428571e-01 0.000000e+00
3.461538e+00 1.428571e-01 0.000000e+00
3.525641e+00 1.428571e-01 0.000000e+00
3.589744e+00 1.428571e-01 0.000000e+00
3.653846e+00 1.428571e-01 0.000000e+00
3.717949e+00 1.428571e-01 0.000000e+00
3.782051e+00 1.428571e-01 0.000000e+00
3.846154e+00 1.428571e-01 0.000000e+00
3.910256e+00 1.428571e-01 0.000000e+00
3.974359e+00 1.428571e-01 0.000000e+00
4.038462e+00 1.428571e-01 0.000000e+00
4.102564e+00 1.428571e-01 0.000000e+00
4.166667e+00 1.428571e-01 0.000000e+00
4.230769e+00 1.428571e-01 0.000000e+00
4.294872e+00 1.428571e-01 0.000000e+00
4.358974e+00 1.428571e-01 0.000000e+00
4.423077e+00 1.428571e-01 0.000000e+00
4.487179e+00 1.428571e-01 0.000000e+00
4.551282e+00 1.428571e-01 0.000000e+00
4.615385e+00 1.428571e-01 0.000000e+00
4.679487e+00 1.428571e-01 0.000000e+00
4.743590e+00 1.428571e-01 0.000000e+00
4.807692e+00 1.428571e-01 0.000000e+00
4.871795e+00 1.428571e-01 0.000000e+00
4.935897e+00 1.428571e-01 0.000000e+00
5.000000e+00 1.428571e-01 0.000000e+00
0.000000e+00 2.142857e-01 0.000000e+00
6.410256e-02 2.142857e-01 0.000000e+00
1.282051e-01 2.142857e-01 0.000000e+00
1.923077e-01 2.142857e-01 0.000000e+00
2.564103e-01 2.142857e-01 0.000000e+00
3.205128e-01 2.142857e-01 0.000000e+00
3.846154e-01 2.142857e-01 0.000000e+00
4.487179e-01 2.142857e-01 0.000000e+00
5.128205e-01 2.142857e-01 0.000000e+00
5.769231e-01 2.142857e-01 0.000000e+00
6.410256e-01 2.142857e-01 0.000000e+00
7.051282e-01 2.142857e-01 0.000000e+00
7.692308e-01 2.142857e-01 0.000000e+00
8.333333e-01 2.142857e-01 0.000000e+00
[...]
<PointData>
<DataArray Name="Velocity" type="Float64" format="ascii" NumberOfComponents="3">
0.000000e+00 0.000000e+00 0
0.000000e+00 0.000000e+00 0
0.000000e+00 0.000000e+00 0
0.000000e+00 0.000000e+00 0
0.000000e+00 0.000000e+00 0
0.000000e+00 0.000000e+00 0
0.000000e+00 0.000000e+00 0
0.000000e+00 0.000000e+00 0
0.000000e+00 0.000000e+00 0
0.000000e+00 0.000000e+00 0
0.000000e+00 0.000000e+00 0
0.000000e+00 0.000000e+00 0
0.000000e+00 0.000000e+00 0
0.000000e+00 0.000000e+00 0
0.000000e+00 0.000000e+00 0
0.000000e+00 0.000000e+00 0
0.000000e+00 0.000000e+00 0
0.000000e+00 0.000000e+00 0
0.000000e+00 0.000000e+00 0
0.000000e+00 0.000000e+00 0
0.000000e+00 0.000000e+00 0
0.000000e+00 0.000000e+00 0
0.000000e+00 0.000000e+00 0
0.000000e+00 0.000000e+00 0
0.000000e+00 0.000000e+00 0
0.000000e+00 0.000000e+00 0
0.000000e+00 0.000000e+00 0
0.000000e+00 0.000000e+00 0
0.000000e+00 0.000000e+00 0
0.000000e+00 0.000000e+00 0
0.000000e+00 0.000000e+00 0
0.000000e+00 0.000000e+00 0
0.000000e+00 0.000000e+00 0
0.000000e+00 0.000000e+00 0
0.000000e+00 0.000000e+00 0
-9.645305e-17 0.000000e+00 0
0.000000e+00 0.000000e+00 0
0.000000e+00 0.000000e+00 0
0.000000e+00 0.000000e+00 0
1.043190e-16 0.000000e+00 0
0.000000e+00 0.000000e+00 0
0.000000e+00 0.000000e+00 0
0.000000e+00 0.000000e+00 0
8.321355e-17 0.000000e+00 0
0.000000e+00 0.000000e+00 0
0.000000e+00 0.000000e+00 0
0.000000e+00 0.000000e+00 0
6.268003e-17 0.000000e+00 0
0.000000e+00 0.000000e+00 0
0.000000e+00 0.000000e+00 0
0.000000e+00 0.000000e+00 0
4.306781e-17 0.000000e+00 0
0.000000e+00 0.000000e+00 0
0.000000e+00 0.000000e+00 0
0.000000e+00 0.000000e+00 0
2.466615e-17 0.000000e+00 0
0.000000e+00 0.000000e+00 0
0.000000e+00 0.000000e+00 0
0.000000e+00 0.000000e+00 0
7.701193e-18 0.000000e+00 0
0.000000e+00 0.000000e+00 0
0.000000e+00 0.000000e+00 0
0.000000e+00 0.000000e+00 0
-7.666150e-18 0.000000e+00 0
0.000000e+00 0.000000e+00 0
0.000000e+00 0.000000e+00 0
0.000000e+00 0.000000e+00 0
0.000000e+00 0.000000e+00 0
0.000000e+00 0.000000e+00 0
0.000000e+00 0.000000e+00 0
-6.095793e-17 0.000000e+00 0
0.000000e+00 0.000000e+00 0
0.000000e+00 0.000000e+00 0
0.000000e+00 0.000000e+00 0
0.000000e+00 0.000000e+00 0
0.000000e+00 0.000000e+00 0
0.000000e+00 0.000000e+00 0
0.000000e+00 0.000000e+00 0
-9.066113e-17 0.000000e+00 0
6.505102e+00 0.000000e+00 0
6.505074e+00 4.471158e-05 0
6.504986e+00 1.084830e-04 0
6.504833e+00 1.790129e-04 0
6.504615e+00 2.519873e-04 0
6.504330e+00 3.255945e-04 0
6.503980e+00 3.989430e-04 0
6.503564e+00 4.715259e-04 0
6.503084e+00 5.430076e-04 0
6.502541e+00 6.131320e-04 0
6.501936e+00 6.816900e-04 0
6.501270e+00 7.485139e-04 0
6.500546e+00 8.134742e-04 0
6.499765e+00 8.764696e-04 0
6.498928e+00 9.374109e-04 0
6.498039e+00 9.962113e-04 0
6.497097e+00 1.052787e-03 0
6.496107e+00 1.107062e-03 0
6.495069e+00 1.158977e-03 0
6.493987e+00 1.208483e-03 0
6.492861e+00 1.255539e-03 0
6.491695e+00 1.300109e-03 0
6.490490e+00 1.342159e-03 0
6.489249e+00 1.381661e-03 0
6.487973e+00 1.418596e-03 0
6.486667e+00 1.452953e-03 0
6.485331e+00 1.484728e-03 0
6.483967e+00 1.513919e-03 0
6.482580e+00 1.540528e-03 0
6.481169e+00 1.564564e-03 0
6.479739e+00 1.586041e-03 0
6.478290e+00 1.604980e-03 0
6.476827e+00 1.621410e-03 0
6.475349e+00 1.635358e-03 0
6.473861e+00 1.646856e-03 0
6.472363e+00 1.655942e-03 0
6.470858e+00 1.662655e-03 0
6.469349e+00 1.667041e-03 0
6.467837e+00 1.669152e-03 0
6.466324e+00 1.669039e-03 0
6.464812e+00 1.666758e-03 0
6.463304e+00 1.662366e-03 0
6.461800e+00 1.655924e-03 0
6.460303e+00 1.647493e-03 0
6.458815e+00 1.637140e-03 0
6.457336e+00 1.624932e-03 0
6.455870e+00 1.610939e-03 0
6.454417e+00 1.595231e-03 0
6.452978e+00 1.577880e-03 0
6.451556e+00 1.558961e-03 0
6.450152e+00 1.538546e-03 0
6.448766e+00 1.516713e-03 0
6.447401e+00 1.493538e-03 0
6.446056e+00 1.469096e-03 0
6.444735e+00 1.443468e-03 0
6.443436e+00 1.416730e-03 0
6.442162e+00 1.388962e-03 0
6.440913e+00 1.360242e-03 0
6.439690e+00 1.330650e-03 0
6.438494e+00 1.300268e-03 0
6.437326e+00 1.269178e-03 0
6.436185e+00 1.237463e-03 0
6.435073e+00 1.205208e-03 0
6.433990e+00 1.172499e-03 0
6.432936e+00 1.139426e-03 0
6.431911e+00 1.106080e-03 0
6.430917e+00 1.072554e-03 0
6.429952e+00 1.038942e-03 0
6.429018e+00 1.005326e-03 0
6.428113e+00 9.717721e-04 0
6.427238e+00 9.382970e-04 0
6.426393e+00 9.048113e-04 0
6.425577e+00 8.709954e-04 0
6.424792e+00 8.360103e-04 0
6.424037e+00 7.976116e-04 0
6.423317e+00 7.505552e-04 0
6.422639e+00 6.604591e-04 0
6.422017e+00 6.272764e-04 0
6.422017e+00 6.575971e-04 0
1.211735e+01 0.000000e+00 0
1.211731e+01 1.294337e-04 0
1.211720e+01 2.687895e-04 0
1.211702e+01 4.135111e-04 0
1.211678e+01 5.604433e-04 0
1.211648e+01 7.076382e-04 0
1.211611e+01 8.538800e-04 0
1.211568e+01 9.983590e-04 0
1.211519e+01 1.140488e-03 0
1.211464e+01 1.279808e-03 0
1.211403e+01 1.415952e-03 0
1.211336e+01 1.548621e-03 0
1.211263e+01 1.677571e-03 0
1.211185e+01 1.802595e-03 0
1.211102e+01 1.923503e-03 0
1.211014e+01 2.040124e-03 0
1.210921e+01 2.152301e-03 0
1.210823e+01 2.259899e-03 0
1.210720e+01 2.362801e-03 0
1.210614e+01 2.460911e-03 0
1.210503e+01 2.554143e-03 0
1.210389e+01 2.642421e-03 0
1.210270e+01 2.725682e-03 0
1.210149e+01 2.803877e-03 0
1.210024e+01 2.876969e-03 0
1.209896e+01 2.944938e-03 0
1.209765e+01 3.007772e-03 0
1.209632e+01 3.065468e-03 0
1.209497e+01 3.118034e-03 0
1.209359e+01 3.165489e-03 0
1.209219e+01 3.207864e-03 0
1.209078e+01 3.245202e-03 0
1.208935e+01 3.277553e-03 0
1.208792e+01 3.304977e-03 0
1.208647e+01 3.327538e-03 0
1.208501e+01 3.345310e-03 0
1.208354e+01 3.358378e-03 0
1.208207e+01 3.366833e-03 0
1.208060e+01 3.370773e-03 0
1.207913e+01 3.370304e-03 0
1.207766e+01 3.365534e-03 0
1.207620e+01 3.356580e-03 0
1.207473e+01 3.343560e-03 0
1.207328e+01 3.326603e-03 0
1.207183e+01 3.305837e-03 0
1.207039e+01 3.281398e-03 0
1.206897e+01 3.253422e-03 0
1.206756e+01 3.222051e-03 0
1.206616e+01 3.187429e-03 0
1.206478e+01 3.149702e-03 0
1.206341e+01 3.109018e-03 0
1.206206e+01 3.065527e-03 0
1.206074e+01 3.019382e-03 0
1.205943e+01 2.970735e-03 0
1.205814e+01 2.919742e-03 0
1.205688e+01 2.866557e-03 0
1.205564e+01 2.811338e-03 0
1.205442e+01 2.754241e-03 0
1.205323e+01 2.695427e-03 0
1.205207e+01 2.635056e-03 0
1.205093e+01 2.573291e-03 0
1.204982e+01 2.510296e-03 0
1.204873e+01 2.446242e-03 0
1.204767e+01 2.381300e-03 0
1.204665e+01 2.315649e-03 0
1.204564e+01 2.249474e-03 0
1.204467e+01 2.182961e-03 0
1.204373e+01 2.116295e-03 0
1.204281e+01 2.049653e-03 0
1.204193e+01 1.983173e-03 0
1.204107e+01 1.916908e-03 0
1.204024e+01 1.850727e-03 0
1.203944e+01 1.784110e-03 0
1.203866e+01 1.715728e-03 0
1.203791e+01 1.642574e-03 0
1.203719e+01 1.558209e-03 0
1.203650e+01 1.449504e-03 0
1.203579e+01 1.374383e-03 0
1.203579e+01 1.361887e-03 0
1.670918e+01 0.000000e+00 0
1.670915e+01 2.099001e-04 0
1.670905e+01 4.240126e-04 0
1.670888e+01 6.405823e-04 0
1.670866e+01 8.577566e-04 0
1.670837e+01 1.074015e-03 0
1.670803e+01 1.288197e-03 0
1.670763e+01 1.499409e-03 0
1.670718e+01 1.706937e-03 0
1.670667e+01 1.910203e-03 0
1.670611e+01 2.108728e-03 0
1.670549e+01 2.302115e-03 0
1.670483e+01 2.490025e-03 0
1.670411e+01 2.672157e-03 0
1.670335e+01 2.848239e-03 0
1.670254e+01 3.018026e-03 0
1.670169e+01 3.181300e-03 0
1.670080e+01 3.337873e-03 0
1.669987e+01 3.487579e-03 0
1.669889e+01 3.630274e-03 0
1.669788e+01 3.765833e-03 0
1.669684e+01 3.894147e-03 0
1.669577e+01 4.015129e-03 0
1.669466e+01 4.128709e-03 0
1.669352e+01 4.234838e-03 0
1.669236e+01 4.333484e-03 0
1.669117e+01 4.424630e-03 0
1.668996e+01 4.508275e-03 0
1.668873e+01 4.584432e-03 0
1.668748e+01 4.653133e-03 0
1.668622e+01 4.714423e-03 0
1.668494e+01 4.768366e-03 0
1.668364e+01 4.815035e-03 0
1.668234e+01 4.854517e-03 0
1.668103e+01 4.886909e-03 0
1.667970e+01 4.912322e-03 0
1.667838e+01 4.930880e-03 0
1.667705e+01 4.942717e-03 0
1.667572e+01 4.947977e-03 0
1.667438e+01 4.946813e-03 0
1.667305e+01 4.939385e-03 0
1.667173e+01 4.925864e-03 0
1.667040e+01 4.906427e-03 0
1.666909e+01 4.881258e-03 0
1.666778e+01 4.850547e-03 0
1.666648e+01 4.814492e-03 0
1.666519e+01 4.773293e-03 0
1.666392e+01 4.727157e-03 0
1.666265e+01 4.676294e-03 0
1.666140e+01 4.620918e-03 0
1.666017e+01 4.561245e-03 0
1.665895e+01 4.497495e-03 0
1.665775e+01 4.429890e-03 0
1.665657e+01 4.358653e-03 0
1.665541e+01 4.284010e-03 0
1.665427e+01 4.206188e-03 0
1.665315e+01 4.125415e-03 0
1.665206e+01 4.041921e-03 0
1.665098e+01 3.955938e-03 0
1.664993e+01 3.867699e-03 0
1.664890e+01 3.777441e-03 0
1.664790e+01 3.685406e-03 0
1.664692e+01 3.591838e-03 0
1.664597e+01 3.496989e-03 0
1.664504e+01 3.401122e-03 0
1.664414e+01 3.304504e-03 0
1.664326e+01 3.207416e-03 0
1.664241e+01 3.110142e-03 0
1.664159e+01 3.012964e-03 0
1.664079e+01 2.916136e-03 0
1.664002e+01 2.819845e-03 0
1.663927e+01 2.724118e-03 0
1.663855e+01 2.628672e-03 0
1.663785e+01 2.532651e-03 0
1.663717e+01 2.434277e-03 0
1.663650e+01 2.330725e-03 0
1.663585e+01 2.218294e-03 0
1.663519e+01 2.120247e-03 0
1.663519e+01 2.081148e-03 0
2.028061e+01 0.000000e+00 0
2.028058e+01 2.819138e-04 0
2.028049e+01 5.641861e-04 0
2.028035e+01 8.461254e-04 0
2.028015e+01 1.126684e-03 0
2.027990e+01 1.404783e-03 0
2.027960e+01 1.679444e-03 0
2.027925e+01 1.949812e-03 0
2.027885e+01 2.215150e-03 0
2.027841e+01 2.474827e-03 0
2.027792e+01 2.728307e-03 0
2.027738e+01 2.975123e-03 0
2.027680e+01 3.214864e-03 0
2.027618e+01 3.447157e-03 0
2.027552e+01 3.671667e-03 0
2.027482e+01 3.888090e-03 0
2.027408e+01 4.096162e-03 0
2.027331e+01 4.295645e-03 0
2.027250e+01 4.486333e-03 0
2.027166e+01 4.668043e-03 0
2.027078e+01 4.840615e-03 0
2.026988e+01 5.003916e-03 0
2.026895e+01 5.157836e-03 0
2.026800e+01 5.302291e-03 0
2.026702e+01 5.437218e-03 0
2.026601e+01 5.562578e-03 0
2.026499e+01 5.678350e-03 0
2.026394e+01 5.784535e-03 0
2.026288e+01 5.881154e-03 0
2.026181e+01 5.968248e-03 0
2.026071e+01 6.045878e-03 0
2.025961e+01 6.114124e-03 0
2.025850e+01 6.173082e-03 0
2.025737e+01 6.222864e-03 0
2.025624e+01 6.263597e-03 0
2.025510e+01 6.295425e-03 0
2.025396e+01 6.318507e-03 0
2.025282e+01 6.333015e-03 0
2.025167e+01 6.339133e-03 0
2.025053e+01 6.337060e-03 0
2.024938e+01 6.327000e-03 0
2.024824e+01 6.309172e-03 0
2.024710e+01 6.283804e-03 0
2.024597e+01 6.251132e-03 0
2.024485e+01 6.211401e-03 0
2.024373e+01 6.164861e-03 0
2.024263e+01 6.111771e-03 0
2.024153e+01 6.052395e-03 0
2.024045e+01 5.987001e-03 0
2.023937e+01 5.915864e-03 0
2.023832e+01 5.839259e-03 0
2.023727e+01 5.757469e-03 0
2.023624e+01 5.670775e-03 0
2.023523e+01 5.579464e-03 0
2.023424e+01 5.483824e-03 0
2.023326e+01 5.384143e-03 0
2.023230e+01 5.280713e-03 0
2.023136e+01 5.173826e-03 0
2.023044e+01 5.063778e-03 0
2.022954e+01 4.950865e-03 0
2.022866e+01 4.835388e-03 0
2.022780e+01 4.717650e-03 0
2.022696e+01 4.597965e-03 0
2.022615e+01 4.476651e-03 0
2.022535e+01 4.354041e-03 0
2.022458e+01 4.230481e-03 0
2.022383e+01 4.106334e-03 0
2.022311e+01 3.981986e-03 0
2.022240e+01 3.857839e-03 0
2.022172e+01 3.734313e-03 0
2.022106e+01 3.611824e-03 0
2.022042e+01 3.490756e-03 0
2.021980e+01 3.371415e-03 0
2.021920e+01 3.253990e-03 0
2.021862e+01 3.138582e-03 0
2.021804e+01 3.025494e-03 0
2.021747e+01 2.916527e-03 0
2.021689e+01 2.809915e-03 0
2.021689e+01 2.756371e-03 0
2.283163e+01 0.000000e+00 0
2.283161e+01 3.429514e-04 0
2.283153e+01 6.835234e-04 0
2.283142e+01 1.021437e-03 0
2.283125e+01 1.356074e-03 0
2.283105e+01 1.686670e-03 0
2.283080e+01 2.012429e-03 0
2.283051e+01 2.332587e-03 0
2.283019e+01 2.646439e-03 0
2.282982e+01 2.953355e-03 0
2.282942e+01 3.252773e-03 0
2.282898e+01 3.544191e-03 0
2.282851e+01 3.827147e-03 0
2.282800e+01 4.101222e-03 0
2.282746e+01 4.366034e-03 0
2.282689e+01 4.621242e-03 0
2.282629e+01 4.866541e-03 0
2.282566e+01 5.101659e-03 0
2.282500e+01 5.326353e-03 0
2.282432e+01 5.540410e-03 0
2.282361e+01 5.743648e-03 0
2.282288e+01 5.935912e-03 0
2.282212e+01 6.117076e-03 0
2.282135e+01 6.287042e-03 0
2.282055e+01 6.445738e-03 0
2.281974e+01 6.593118e-03 0
2.281891e+01 6.729163e-03 0
2.281807e+01 6.853874e-03 0
2.281721e+01 6.967280e-03 0
2.281634e+01 7.069430e-03 0
2.281545e+01 7.160400e-03 0
2.281456e+01 7.240285e-03 0
2.281366e+01 7.309198e-03 0
2.281275e+01 7.367276e-03 0
2.281184e+01 7.414671e-03 0
2.281092e+01 7.451553e-03 0
2.281000e+01 7.478114e-03 0
2.280907e+01 7.494557e-03 0
2.280815e+01 7.501102e-03 0
2.280723e+01 7.497983e-03 0
2.280630e+01 7.485446e-03 0
2.280539e+01 7.463749e-03 0
2.280447e+01 7.433162e-03 0
2.280356e+01 7.393966e-03 0
2.280265e+01 7.346450e-03 0
2.280175e+01 7.290913e-03 0
2.280086e+01 7.227659e-03 0
2.279998e+01 7.157002e-03 0
2.279911e+01 7.079260e-03 0
2.279825e+01 6.994755e-03 0
2.279740e+01 6.903815e-03 0
2.279656e+01 6.806773e-03 0
2.279573e+01 6.703963e-03 0
2.279492e+01 6.595722e-03 0
2.279412e+01 6.482389e-03 0
2.279333e+01 6.364304e-03 0
2.279256e+01 6.241812e-03 0
2.279181e+01 6.115256e-03 0
2.279107e+01 5.984982e-03 0
2.279035e+01 5.851337e-03 0
2.278964e+01 5.714673e-03 0
2.278895e+01 5.575344e-03 0
2.278828e+01 5.433714e-03 0
2.278763e+01 5.290155e-03 0
2.278699e+01 5.145053e-03 0
2.278638e+01 4.998815e-03 0
2.278578e+01 4.851874e-03 0
2.278520e+01 4.704702e-03 0
2.278463e+01 4.557822e-03 0
2.278409e+01 4.411826e-03 0
2.278356e+01 4.267396e-03 0
2.278306e+01 4.125344e-03 0
2.278256e+01 3.986665e-03 0
2.278209e+01 3.852653e-03 0
2.278162e+01 3.725109e-03 0
2.278116e+01 3.606652e-03 0
2.278071e+01 3.502860e-03 0
2.278024e+01 3.393642e-03 0
2.278024e+01 3.331647e-03 0
2.436224e+01 0.000000e+00 0
2.436223e+01 3.911253e-04 0
2.436217e+01 7.778845e-04 0
2.436208e+01 1.160155e-03 0
2.436196e+01 1.537530e-03 0
2.436181e+01 1.909444e-03 0
2.436162e+01 2.275247e-03 0
2.436141e+01 2.634270e-03 0
2.436116e+01 2.985870e-03 0
2.436089e+01 3.329445e-03 0
2.436059e+01 3.664438e-03 0
2.436027e+01 3.990328e-03 0
2.435992e+01 4.306634e-03 0
2.435954e+01 4.612908e-03 0
2.435915e+01 4.908744e-03 0
2.435872e+01 5.193776e-03 0
2.435828e+01 5.467671e-03 0
2.435782e+01 5.730131e-03 0
2.435733e+01 5.980889e-03 0
2.435683e+01 6.219713e-03 0
2.435631e+01 6.446403e-03 0
2.435577e+01 6.660790e-03 0
2.435522e+01 6.862737e-03 0
2.435465e+01 7.052135e-03 0
2.435407e+01 7.228907e-03 0
2.435348e+01 7.393005e-03 0
2.435287e+01 7.544407e-03 0
2.435225e+01 7.683121e-03 0
2.435162e+01 7.809179e-03 0
2.435099e+01 7.922641e-03 0
2.435034e+01 8.023592e-03 0
2.434969e+01 8.112140e-03 0
2.434903e+01 8.188415e-03 0
2.434837e+01 8.252572e-03 0
2.434771e+01 8.304783e-03 0
2.434704e+01 8.345243e-03 0
2.434637e+01 8.374164e-03 0
2.434570e+01 8.391779e-03 0
2.434502e+01 8.398335e-03 0
2.434435e+01 8.394094e-03 0
2.434368e+01 8.379333e-03 0
2.434302e+01 8.354344e-03 0
2.434235e+01 8.319430e-03 0
2.434169e+01 8.274905e-03 0
2.434103e+01 8.221096e-03 0
2.434038e+01 8.158337e-03 0
2.433974e+01 8.086970e-03 0
2.433910e+01 8.007345e-03 0
2.433847e+01 7.919819e-03 0
2.433784e+01 7.824755e-03 0
2.433723e+01 7.722519e-03 0
2.433662e+01 7.613483e-03 0
2.433602e+01 7.498020e-03 0
2.433544e+01 7.376507e-03 0
2.433486e+01 7.249323e-03 0
2.433429e+01 7.116848e-03 0
2.433374e+01 6.979465e-03 0
2.433319e+01 6.837554e-03 0
2.433266e+01 6.691500e-03 0
2.433214e+01 6.541686e-03 0
2.433163e+01 6.388500e-03 0
2.433114e+01 6.232331e-03 0
2.433066e+01 6.073577e-03 0
2.433019e+01 5.912642e-03 0
2.432973e+01 5.749946e-03 0
2.432929e+01 5.585931e-03 0
2.432886e+01 5.421073e-03 0
2.432844e+01 5.255900e-03 0
2.432804e+01 5.091016e-03 0
2.432766e+01 4.927142e-03 0
2.432728e+01 4.765173e-03 0
2.432692e+01 4.606270e-03 0
2.432657e+01 4.451988e-03 0
2.432624e+01 4.304484e-03 0
2.432591e+01 4.166815e-03 0
2.432560e+01 4.043198e-03 0
2.432528e+01 3.941847e-03 0
2.432497e+01 3.829634e-03 0
2.432497e+01 3.761082e-03 0
2.487245e+01 0.000000e+00 0
2.487244e+01 4.247593e-04 0
2.487240e+01 8.437371e-04 0
2.487235e+01 1.256862e-03 0
2.487227e+01 1.663825e-03 0
2.487218e+01 2.064178e-03 0
2.487206e+01 2.457381e-03 0
2.487193e+01 2.842856e-03 0
2.487178e+01 3.220030e-03 0
2.487162e+01 3.588341e-03 0
2.487144e+01 3.947253e-03 0
2.487124e+01 4.296253e-03 0
2.487103e+01 4.634855e-03 0
2.487080e+01 4.962609e-03 0
2.487056e+01 5.279099e-03 0
2.487031e+01 5.583946e-03 0
2.487005e+01 5.876803e-03 0
2.486977e+01 6.157357e-03 0
2.486948e+01 6.425330e-03 0
2.486918e+01 6.680478e-03 0
2.486888e+01 6.922593e-03 0
2.486856e+01 7.151496e-03 0
2.486823e+01 7.367043e-03 0
2.486789e+01 7.569123e-03 0
2.486755e+01 7.757654e-03 0
2.486720e+01 7.932588e-03 0
2.486684e+01 8.093907e-03 0
2.486648e+01 8.241619e-03 0
2.486611e+01 8.375763e-03 0
2.486574e+01 8.496405e-03 0
2.486536e+01 8.603640e-03 0
2.486498e+01 8.697585e-03 0
2.486460e+01 8.778384e-03 0
2.486421e+01 8.846202e-03 0
2.486382e+01 8.901229e-03 0
2.486343e+01 8.943675e-03 0
2.486304e+01 8.973771e-03 0
2.486265e+01 8.991768e-03 0
2.486226e+01 8.997931e-03 0
2.486187e+01 8.992544e-03 0
2.486149e+01 8.975908e-03 0
2.486110e+01 8.948334e-03 0
2.486072e+01 8.910150e-03 0
2.486033e+01 8.861695e-03 0
2.485996e+01 8.803319e-03 0
2.485958e+01 8.735382e-03 0
2.485921e+01 8.658250e-03 0
2.485884e+01 8.572302e-03 0
2.485848e+01 8.477918e-03 0
2.485812e+01 8.375489e-03 0
2.485777e+01 8.265407e-03 0
2.485742e+01 8.148070e-03 0
2.485708e+01 8.023879e-03 0
2.485675e+01 7.893236e-03 0
2.485642e+01 7.756546e-03 0
2.485610e+01 7.614216e-03 0
2.485578e+01 7.466650e-03 0
2.485547e+01 7.314256e-03 0
2.485517e+01 7.157439e-03 0
2.485487e+01 6.996604e-03 0
2.485459e+01 6.832159e-03 0
2.485431e+01 6.664511e-03 0
2.485403e+01 6.494070e-03 0
2.485377e+01 6.321251e-03 0
2.485351e+01 6.146484e-03 0
2.485326e+01 5.970213e-03 0
2.485302e+01 5.792917e-03 0
2.485279e+01 5.615129e-03 0
2.485257e+01 5.437464e-03 0
2.485236e+01 5.260678e-03 0
2.485215e+01 5.085741e-03 0
2.485196e+01 4.913963e-03 0
2.485177e+01 4.747170e-03 0
2.485160e+01 4.587973e-03 0
2.485143e+01 4.440115e-03 0
2.485127e+01 4.308753e-03 0
2.485113e+01 4.203819e-03 0
2.485098e+01 4.084032e-03 0
2.485098e+01 4.008360e-03 0
2.436224e+01 0.000000e+00 0
2.436224e+01 4.421556e-04 0
2.436223e+01 8.776106e-04 0
2.436221e+01 1.306294e-03 0
2.436219e+01 1.727936e-03 0
2.436216e+01 2.142160e-03 0
2.436213e+01 2.548510e-03 0
2.436209e+01 2.946492e-03 0
2.436205e+01 3.335598e-03 0
2.436200e+01 3.715321e-03 0
2.436195e+01 4.085156e-03 0
2.436190e+01 4.444616e-03 0
2.436184e+01 4.793232e-03 0
2.436179e+01 5.130565e-03 0
2.436172e+01 5.456203e-03 0
2.436166e+01 5.769768e-03 0
2.436160e+01 6.070913e-03 0
2.436153e+01 6.359324e-03 0
2.436146e+01 6.634721e-03 0
2.436139e+01 6.896859e-03 0
2.436132e+01 7.145527e-03 0
2.436124e+01 7.380544e-03 0
2.436117e+01 7.601766e-03 0
2.436109e+01 7.809082e-03 0
2.436101e+01 8.002412e-03 0
2.436094e+01 8.181710e-03 0
2.436086e+01 8.346958e-03 0
2.436078e+01 8.498169e-03 0
2.436070e+01 8.635387e-03 0
2.436062e+01 8.758684e-03 0
2.436054e+01 8.868159e-03 0
2.436046e+01 8.963937e-03 0
2.436038e+01 9.046167e-03 0
2.436030e+01 9.115025e-03 0
2.436022e+01 9.170709e-03 0
2.436014e+01 9.213438e-03 0
2.436007e+01 9.243454e-03 0
2.435999e+01 9.261016e-03 0
2.435991e+01 9.266402e-03 0
2.435984e+01 9.259905e-03 0
2.435976e+01 9.241838e-03 0
2.435969e+01 9.212525e-03 0
2.435962e+01 9.172305e-03 0
2.435955e+01 9.121529e-03 0
2.435948e+01 9.060560e-03 0
2.435941e+01 8.989768e-03 0
2.435934e+01 8.909536e-03 0
2.435928e+01 8.820250e-03 0
2.435921e+01 8.722308e-03 0
2.435915e+01 8.616109e-03 0
2.435909e+01 8.502060e-03 0
2.435903e+01 8.380571e-03 0
2.435898e+01 8.252053e-03 0
2.435892e+01 8.116922e-03 0
2.435887e+01 7.975592e-03 0
2.435881e+01 7.828481e-03 0
2.435876e+01 7.676004e-03 0
2.435871e+01 7.518575e-03 0
2.435867e+01 7.356607e-03 0
2.435862e+01 7.190511e-03 0
2.435858e+01 7.020696e-03 0
2.435854e+01 6.847567e-03 0
2.435850e+01 6.671528e-03 0
2.435846e+01 6.492985e-03 0
2.435842e+01 6.312344e-03 0
2.435839e+01 6.130021e-03 0
2.435836e+01 5.946452e-03 0
2.435833e+01 5.762108e-03 0
2.435831e+01 5.577528e-03 0
2.435828e+01 5.393370e-03 0
2.435827e+01 5.210485e-03 0
2.435825e+01 5.030052e-03 0
2.435825e+01 4.853775e-03 0
2.435825e+01 4.684174e-03 0
2.435826e+01 4.525003e-03 0
2.435828e+01 4.381612e-03 0
2.435831e+01 4.264695e-03 0
2.435837e+01 4.130019e-03 0